TITLE = "Xsusc001_1"
VARIABLES = "time" 
 "   1" "   2" "   3" "   4" "   5" "   6" "   7" "   8" "   9" "  10" "  11"
 ZONE T="Xsusc001_1"  F=POINT, I=         601 , J=1, K=1
  0.00000E+00  0.66603E-01  0.86496E-01  0.86738E-01  0.11140E+00  0.12359E+00  0.12800E+00  0.13099E+00  0.11928E+00  0.84897E-01  0.48378E-01  0.13604E-01 
  0.10000E+01  0.66603E-01  0.86496E-01  0.86738E-01  0.11140E+00  0.12359E+00  0.12800E+00  0.13099E+00  0.11928E+00  0.84897E-01  0.48378E-01  0.13604E-01 
  0.20000E+01  0.66602E-01  0.86495E-01  0.86738E-01  0.11140E+00  0.12358E+00  0.12800E+00  0.13099E+00  0.11928E+00  0.84897E-01  0.48378E-01  0.13604E-01 
  0.30000E+01  0.66602E-01  0.86494E-01  0.86737E-01  0.11140E+00  0.12358E+00  0.12800E+00  0.13099E+00  0.11928E+00  0.84896E-01  0.48377E-01  0.13603E-01 
  0.40000E+01  0.66601E-01  0.86494E-01  0.86736E-01  0.11140E+00  0.12358E+00  0.12800E+00  0.13099E+00  0.11928E+00  0.84895E-01  0.48377E-01  0.13603E-01 
  0.50000E+01  0.66600E-01  0.86492E-01  0.86735E-01  0.11139E+00  0.12358E+00  0.12800E+00  0.13099E+00  0.11928E+00  0.84894E-01  0.48376E-01  0.13603E-01 
  0.60000E+01  0.66599E-01  0.86491E-01  0.86734E-01  0.11139E+00  0.12358E+00  0.12800E+00  0.13099E+00  0.11928E+00  0.84893E-01  0.48376E-01  0.13603E-01 
  0.70000E+01  0.66598E-01  0.86489E-01  0.86732E-01  0.11139E+00  0.12358E+00  0.12799E+00  0.13098E+00  0.11927E+00  0.84891E-01  0.48375E-01  0.13603E-01 
  0.80000E+01  0.66596E-01  0.86487E-01  0.86730E-01  0.11139E+00  0.12357E+00  0.12799E+00  0.13098E+00  0.11927E+00  0.84889E-01  0.48373E-01  0.13602E-01 
  0.90000E+01  0.66594E-01  0.86484E-01  0.86727E-01  0.11138E+00  0.12357E+00  0.12799E+00  0.13098E+00  0.11927E+00  0.84886E-01  0.48372E-01  0.13602E-01 
  0.10000E+02  0.66591E-01  0.86481E-01  0.86723E-01  0.11138E+00  0.12356E+00  0.12798E+00  0.13097E+00  0.11926E+00  0.84883E-01  0.48370E-01  0.13601E-01 
  0.11000E+02  0.66588E-01  0.86476E-01  0.86719E-01  0.11137E+00  0.12356E+00  0.12797E+00  0.13097E+00  0.11926E+00  0.84878E-01  0.48367E-01  0.13601E-01 
  0.12000E+02  0.66584E-01  0.86471E-01  0.86714E-01  0.11137E+00  0.12355E+00  0.12797E+00  0.13096E+00  0.11925E+00  0.84873E-01  0.48364E-01  0.13600E-01 
  0.13000E+02  0.66579E-01  0.86464E-01  0.86707E-01  0.11136E+00  0.12354E+00  0.12796E+00  0.13095E+00  0.11924E+00  0.84867E-01  0.48361E-01  0.13599E-01 
  0.14000E+02  0.66573E-01  0.86456E-01  0.86699E-01  0.11135E+00  0.12353E+00  0.12794E+00  0.13093E+00  0.11923E+00  0.84859E-01  0.48356E-01  0.13597E-01 
  0.15000E+02  0.66565E-01  0.86447E-01  0.86689E-01  0.11133E+00  0.12352E+00  0.12793E+00  0.13092E+00  0.11921E+00  0.84849E-01  0.48351E-01  0.13596E-01 
  0.16000E+02  0.66556E-01  0.86434E-01  0.86677E-01  0.11132E+00  0.12350E+00  0.12791E+00  0.13090E+00  0.11920E+00  0.84837E-01  0.48344E-01  0.13594E-01 
  0.17000E+02  0.66544E-01  0.86419E-01  0.86662E-01  0.11130E+00  0.12348E+00  0.12789E+00  0.13088E+00  0.11918E+00  0.84822E-01  0.48335E-01  0.13592E-01 
  0.18000E+02  0.66530E-01  0.86400E-01  0.86643E-01  0.11128E+00  0.12345E+00  0.12786E+00  0.13085E+00  0.11915E+00  0.84804E-01  0.48325E-01  0.13589E-01 
  0.19000E+02  0.66512E-01  0.86377E-01  0.86620E-01  0.11125E+00  0.12342E+00  0.12783E+00  0.13082E+00  0.11912E+00  0.84781E-01  0.48312E-01  0.13585E-01 
  0.20000E+02  0.66490E-01  0.86349E-01  0.86591E-01  0.11121E+00  0.12338E+00  0.12779E+00  0.13077E+00  0.11908E+00  0.84753E-01  0.48296E-01  0.13581E-01 
  0.21000E+02  0.66463E-01  0.86314E-01  0.86556E-01  0.11116E+00  0.12333E+00  0.12773E+00  0.13072E+00  0.11903E+00  0.84719E-01  0.48276E-01  0.13575E-01 
  0.22000E+02  0.66428E-01  0.86269E-01  0.86511E-01  0.11111E+00  0.12326E+00  0.12767E+00  0.13065E+00  0.11897E+00  0.84675E-01  0.48251E-01  0.13568E-01 
  0.23000E+02  0.66385E-01  0.86212E-01  0.86454E-01  0.11103E+00  0.12318E+00  0.12758E+00  0.13057E+00  0.11889E+00  0.84619E-01  0.48220E-01  0.13559E-01 
  0.24000E+02  0.66329E-01  0.86140E-01  0.86381E-01  0.11094E+00  0.12308E+00  0.12748E+00  0.13046E+00  0.11879E+00  0.84548E-01  0.48179E-01  0.13548E-01 
  0.25000E+02  0.66257E-01  0.86046E-01  0.86288E-01  0.11082E+00  0.12294E+00  0.12734E+00  0.13031E+00  0.11866E+00  0.84456E-01  0.48127E-01  0.13533E-01 
  0.26000E+02  0.66166E-01  0.85928E-01  0.86169E-01  0.11067E+00  0.12277E+00  0.12716E+00  0.13013E+00  0.11850E+00  0.84340E-01  0.48060E-01  0.13514E-01 
  0.27000E+02  0.66049E-01  0.85777E-01  0.86017E-01  0.11047E+00  0.12256E+00  0.12694E+00  0.12991E+00  0.11829E+00  0.84192E-01  0.47976E-01  0.13491E-01 
  0.28000E+02  0.65901E-01  0.85584E-01  0.85824E-01  0.11022E+00  0.12228E+00  0.12665E+00  0.12961E+00  0.11802E+00  0.84003E-01  0.47868E-01  0.13460E-01 
  0.29000E+02  0.65711E-01  0.85337E-01  0.85577E-01  0.10991E+00  0.12193E+00  0.12629E+00  0.12924E+00  0.11768E+00  0.83760E-01  0.47730E-01  0.13421E-01 
  0.30000E+02  0.65465E-01  0.85018E-01  0.85256E-01  0.10949E+00  0.12147E+00  0.12582E+00  0.12876E+00  0.11724E+00  0.83447E-01  0.47552E-01  0.13371E-01 
  0.31000E+02  0.65333E-01  0.84846E-01  0.85084E-01  0.10927E+00  0.12123E+00  0.12556E+00  0.12850E+00  0.11701E+00  0.83278E-01  0.47456E-01  0.13344E-01 
  0.32000E+02  0.65168E-01  0.84633E-01  0.84870E-01  0.10900E+00  0.12092E+00  0.12525E+00  0.12817E+00  0.11671E+00  0.83069E-01  0.47336E-01  0.13311E-01 
  0.33000E+02  0.64975E-01  0.84382E-01  0.84619E-01  0.10868E+00  0.12057E+00  0.12487E+00  0.12779E+00  0.11637E+00  0.82823E-01  0.47196E-01  0.13271E-01 
  0.34000E+02  0.64760E-01  0.84102E-01  0.84338E-01  0.10832E+00  0.12017E+00  0.12446E+00  0.12737E+00  0.11598E+00  0.82548E-01  0.47039E-01  0.13227E-01 
  0.35000E+02  0.64528E-01  0.83801E-01  0.84036E-01  0.10793E+00  0.11974E+00  0.12401E+00  0.12691E+00  0.11557E+00  0.82253E-01  0.46871E-01  0.13180E-01 
  0.36000E+02  0.64286E-01  0.83487E-01  0.83721E-01  0.10752E+00  0.11929E+00  0.12355E+00  0.12644E+00  0.11513E+00  0.81944E-01  0.46695E-01  0.13130E-01 
  0.37000E+02  0.64038E-01  0.83165E-01  0.83398E-01  0.10711E+00  0.11883E+00  0.12307E+00  0.12595E+00  0.11469E+00  0.81628E-01  0.46515E-01  0.13080E-01 
  0.38000E+02  0.63788E-01  0.82840E-01  0.83073E-01  0.10669E+00  0.11836E+00  0.12259E+00  0.12546E+00  0.11424E+00  0.81310E-01  0.46334E-01  0.13029E-01 
  0.39000E+02  0.63544E-01  0.82523E-01  0.82755E-01  0.10628E+00  0.11791E+00  0.12212E+00  0.12498E+00  0.11380E+00  0.80998E-01  0.46156E-01  0.12979E-01 
  0.40000E+02  0.63317E-01  0.82229E-01  0.82459E-01  0.10590E+00  0.11749E+00  0.12169E+00  0.12453E+00  0.11340E+00  0.80709E-01  0.45992E-01  0.12933E-01 
  0.41000E+02  0.63123E-01  0.81976E-01  0.82206E-01  0.10558E+00  0.11713E+00  0.12131E+00  0.12415E+00  0.11305E+00  0.80461E-01  0.45850E-01  0.12893E-01 
  0.42000E+02  0.62972E-01  0.81780E-01  0.82010E-01  0.10533E+00  0.11685E+00  0.12102E+00  0.12385E+00  0.11278E+00  0.80269E-01  0.45741E-01  0.12862E-01 
  0.43000E+02  0.62867E-01  0.81645E-01  0.81873E-01  0.10515E+00  0.11665E+00  0.12082E+00  0.12365E+00  0.11259E+00  0.80136E-01  0.45665E-01  0.12841E-01 
  0.44000E+02  0.62797E-01  0.81554E-01  0.81782E-01  0.10503E+00  0.11652E+00  0.12069E+00  0.12351E+00  0.11247E+00  0.80047E-01  0.45614E-01  0.12826E-01 
  0.45000E+02  0.62742E-01  0.81482E-01  0.81710E-01  0.10494E+00  0.11642E+00  0.12058E+00  0.12340E+00  0.11237E+00  0.79976E-01  0.45574E-01  0.12815E-01 
  0.46000E+02  0.62684E-01  0.81406E-01  0.81634E-01  0.10484E+00  0.11631E+00  0.12047E+00  0.12329E+00  0.11226E+00  0.79902E-01  0.45531E-01  0.12803E-01 
  0.47000E+02  0.62611E-01  0.81312E-01  0.81540E-01  0.10472E+00  0.11618E+00  0.12033E+00  0.12314E+00  0.11213E+00  0.79809E-01  0.45479E-01  0.12788E-01 
  0.48000E+02  0.62525E-01  0.81200E-01  0.81427E-01  0.10458E+00  0.11602E+00  0.12017E+00  0.12297E+00  0.11198E+00  0.79699E-01  0.45416E-01  0.12771E-01 
  0.49000E+02  0.62431E-01  0.81078E-01  0.81305E-01  0.10442E+00  0.11584E+00  0.11998E+00  0.12279E+00  0.11181E+00  0.79580E-01  0.45348E-01  0.12752E-01 
  0.50000E+02  0.62339E-01  0.80959E-01  0.81186E-01  0.10427E+00  0.11567E+00  0.11981E+00  0.12261E+00  0.11165E+00  0.79462E-01  0.45281E-01  0.12733E-01 
  0.51000E+02  0.62255E-01  0.80849E-01  0.81076E-01  0.10413E+00  0.11552E+00  0.11965E+00  0.12244E+00  0.11149E+00  0.79355E-01  0.45220E-01  0.12716E-01 
  0.52000E+02  0.62179E-01  0.80751E-01  0.80977E-01  0.10400E+00  0.11538E+00  0.11950E+00  0.12229E+00  0.11136E+00  0.79258E-01  0.45165E-01  0.12700E-01 
  0.53000E+02  0.62107E-01  0.80657E-01  0.80883E-01  0.10388E+00  0.11524E+00  0.11936E+00  0.12215E+00  0.11123E+00  0.79166E-01  0.45112E-01  0.12685E-01 
  0.54000E+02  0.62032E-01  0.80559E-01  0.80785E-01  0.10375E+00  0.11510E+00  0.11922E+00  0.12200E+00  0.11109E+00  0.79070E-01  0.45058E-01  0.12670E-01 
  0.55000E+02  0.61949E-01  0.80451E-01  0.80677E-01  0.10361E+00  0.11495E+00  0.11906E+00  0.12184E+00  0.11095E+00  0.78965E-01  0.44997E-01  0.12653E-01 
  0.56000E+02  0.61857E-01  0.80333E-01  0.80558E-01  0.10346E+00  0.11478E+00  0.11888E+00  0.12166E+00  0.11078E+00  0.78848E-01  0.44931E-01  0.12634E-01 
  0.57000E+02  0.61760E-01  0.80206E-01  0.80431E-01  0.10330E+00  0.11460E+00  0.11869E+00  0.12147E+00  0.11061E+00  0.78724E-01  0.44860E-01  0.12614E-01 
  0.58000E+02  0.61659E-01  0.80076E-01  0.80300E-01  0.10313E+00  0.11441E+00  0.11850E+00  0.12127E+00  0.11043E+00  0.78596E-01  0.44787E-01  0.12594E-01 
  0.59000E+02  0.61560E-01  0.79946E-01  0.80170E-01  0.10296E+00  0.11423E+00  0.11831E+00  0.12108E+00  0.11025E+00  0.78469E-01  0.44715E-01  0.12574E-01 
  0.60000E+02  0.61463E-01  0.79821E-01  0.80045E-01  0.10280E+00  0.11405E+00  0.11812E+00  0.12089E+00  0.11008E+00  0.78346E-01  0.44645E-01  0.12554E-01 
  0.61000E+02  0.61373E-01  0.79704E-01  0.79927E-01  0.10265E+00  0.11388E+00  0.11795E+00  0.12071E+00  0.10992E+00  0.78231E-01  0.44579E-01  0.12535E-01 
  0.62000E+02  0.61291E-01  0.79597E-01  0.79820E-01  0.10251E+00  0.11373E+00  0.11779E+00  0.12055E+00  0.10977E+00  0.78126E-01  0.44520E-01  0.12519E-01 
  0.63000E+02  0.61219E-01  0.79504E-01  0.79727E-01  0.10239E+00  0.11360E+00  0.11766E+00  0.12041E+00  0.10964E+00  0.78035E-01  0.44467E-01  0.12504E-01 
  0.64000E+02  0.61158E-01  0.79425E-01  0.79648E-01  0.10229E+00  0.11348E+00  0.11754E+00  0.12029E+00  0.10953E+00  0.77957E-01  0.44423E-01  0.12492E-01 
  0.65000E+02  0.61108E-01  0.79360E-01  0.79582E-01  0.10221E+00  0.11339E+00  0.11744E+00  0.12019E+00  0.10944E+00  0.77893E-01  0.44387E-01  0.12481E-01 
  0.66000E+02  0.61066E-01  0.79305E-01  0.79527E-01  0.10214E+00  0.11331E+00  0.11736E+00  0.12010E+00  0.10937E+00  0.77839E-01  0.44356E-01  0.12473E-01 
  0.67000E+02  0.61027E-01  0.79254E-01  0.79476E-01  0.10207E+00  0.11324E+00  0.11729E+00  0.12003E+00  0.10929E+00  0.77789E-01  0.44328E-01  0.12465E-01 
  0.68000E+02  0.60985E-01  0.79200E-01  0.79422E-01  0.10200E+00  0.11316E+00  0.11721E+00  0.11994E+00  0.10922E+00  0.77736E-01  0.44297E-01  0.12456E-01 
  0.69000E+02  0.60937E-01  0.79137E-01  0.79359E-01  0.10192E+00  0.11307E+00  0.11711E+00  0.11985E+00  0.10913E+00  0.77675E-01  0.44262E-01  0.12446E-01 
  0.70000E+02  0.60881E-01  0.79065E-01  0.79286E-01  0.10183E+00  0.11297E+00  0.11701E+00  0.11974E+00  0.10903E+00  0.77604E-01  0.44222E-01  0.12435E-01 
  0.71000E+02  0.60820E-01  0.78985E-01  0.79207E-01  0.10173E+00  0.11285E+00  0.11689E+00  0.11962E+00  0.10892E+00  0.77525E-01  0.44177E-01  0.12422E-01 
  0.72000E+02  0.60756E-01  0.78903E-01  0.79124E-01  0.10162E+00  0.11274E+00  0.11677E+00  0.11949E+00  0.10881E+00  0.77445E-01  0.44131E-01  0.12409E-01 
  0.73000E+02  0.60693E-01  0.78821E-01  0.79042E-01  0.10151E+00  0.11262E+00  0.11664E+00  0.11937E+00  0.10870E+00  0.77364E-01  0.44085E-01  0.12397E-01 
  0.74000E+02  0.60631E-01  0.78740E-01  0.78961E-01  0.10141E+00  0.11250E+00  0.11652E+00  0.11925E+00  0.10859E+00  0.77285E-01  0.44040E-01  0.12384E-01 
  0.75000E+02  0.60569E-01  0.78659E-01  0.78880E-01  0.10131E+00  0.11239E+00  0.11641E+00  0.11913E+00  0.10847E+00  0.77205E-01  0.43995E-01  0.12371E-01 
  0.76000E+02  0.60505E-01  0.78577E-01  0.78797E-01  0.10120E+00  0.11227E+00  0.11628E+00  0.11900E+00  0.10836E+00  0.77125E-01  0.43949E-01  0.12358E-01 
  0.77000E+02  0.60440E-01  0.78493E-01  0.78713E-01  0.10109E+00  0.11215E+00  0.11616E+00  0.11887E+00  0.10825E+00  0.77042E-01  0.43902E-01  0.12345E-01 
  0.78000E+02  0.60376E-01  0.78409E-01  0.78629E-01  0.10098E+00  0.11203E+00  0.11604E+00  0.11875E+00  0.10813E+00  0.76960E-01  0.43855E-01  0.12332E-01 
  0.79000E+02  0.60314E-01  0.78329E-01  0.78548E-01  0.10088E+00  0.11192E+00  0.11592E+00  0.11863E+00  0.10802E+00  0.76881E-01  0.43810E-01  0.12319E-01 
  0.80000E+02  0.60257E-01  0.78255E-01  0.78474E-01  0.10078E+00  0.11181E+00  0.11581E+00  0.11851E+00  0.10792E+00  0.76808E-01  0.43769E-01  0.12307E-01 
  0.81000E+02  0.60207E-01  0.78190E-01  0.78409E-01  0.10070E+00  0.11172E+00  0.11571E+00  0.11842E+00  0.10783E+00  0.76745E-01  0.43733E-01  0.12297E-01 
  0.82000E+02  0.60167E-01  0.78137E-01  0.78356E-01  0.10063E+00  0.11164E+00  0.11563E+00  0.11834E+00  0.10775E+00  0.76693E-01  0.43703E-01  0.12289E-01 
  0.83000E+02  0.60134E-01  0.78095E-01  0.78314E-01  0.10058E+00  0.11158E+00  0.11557E+00  0.11827E+00  0.10770E+00  0.76652E-01  0.43680E-01  0.12282E-01 
  0.84000E+02  0.60109E-01  0.78062E-01  0.78281E-01  0.10054E+00  0.11154E+00  0.11552E+00  0.11822E+00  0.10765E+00  0.76620E-01  0.43661E-01  0.12277E-01 
  0.85000E+02  0.60087E-01  0.78034E-01  0.78252E-01  0.10050E+00  0.11149E+00  0.11548E+00  0.11818E+00  0.10761E+00  0.76592E-01  0.43645E-01  0.12273E-01 
  0.86000E+02  0.60065E-01  0.78005E-01  0.78224E-01  0.10046E+00  0.11145E+00  0.11544E+00  0.11814E+00  0.10757E+00  0.76564E-01  0.43629E-01  0.12268E-01 
  0.87000E+02  0.60040E-01  0.77972E-01  0.78191E-01  0.10042E+00  0.11141E+00  0.11539E+00  0.11809E+00  0.10753E+00  0.76531E-01  0.43611E-01  0.12263E-01 
  0.88000E+02  0.60010E-01  0.77933E-01  0.78152E-01  0.10037E+00  0.11135E+00  0.11533E+00  0.11803E+00  0.10747E+00  0.76493E-01  0.43589E-01  0.12257E-01 
  0.89000E+02  0.59974E-01  0.77887E-01  0.78106E-01  0.10031E+00  0.11129E+00  0.11526E+00  0.11796E+00  0.10741E+00  0.76448E-01  0.43563E-01  0.12250E-01 
  0.90000E+02  0.59934E-01  0.77835E-01  0.78054E-01  0.10024E+00  0.11121E+00  0.11519E+00  0.11788E+00  0.10734E+00  0.76397E-01  0.43534E-01  0.12242E-01 
  0.91000E+02  0.59890E-01  0.77778E-01  0.77996E-01  0.10017E+00  0.11113E+00  0.11510E+00  0.11779E+00  0.10726E+00  0.76341E-01  0.43502E-01  0.12233E-01 
  0.92000E+02  0.59844E-01  0.77718E-01  0.77936E-01  0.10009E+00  0.11104E+00  0.11501E+00  0.11770E+00  0.10718E+00  0.76282E-01  0.43468E-01  0.12223E-01 
  0.93000E+02  0.59797E-01  0.77656E-01  0.77874E-01  0.10001E+00  0.11096E+00  0.11492E+00  0.11761E+00  0.10709E+00  0.76221E-01  0.43434E-01  0.12213E-01 
  0.94000E+02  0.59751E-01  0.77597E-01  0.77815E-01  0.99938E-01  0.11087E+00  0.11483E+00  0.11752E+00  0.10701E+00  0.76163E-01  0.43401E-01  0.12204E-01 
  0.95000E+02  0.59709E-01  0.77543E-01  0.77760E-01  0.99867E-01  0.11079E+00  0.11475E+00  0.11744E+00  0.10693E+00  0.76110E-01  0.43371E-01  0.12196E-01 
  0.96000E+02  0.59672E-01  0.77494E-01  0.77712E-01  0.99805E-01  0.11072E+00  0.11468E+00  0.11736E+00  0.10687E+00  0.76062E-01  0.43344E-01  0.12188E-01 
  0.97000E+02  0.59639E-01  0.77452E-01  0.77669E-01  0.99751E-01  0.11066E+00  0.11462E+00  0.11730E+00  0.10681E+00  0.76021E-01  0.43320E-01  0.12181E-01 
  0.98000E+02  0.59609E-01  0.77413E-01  0.77630E-01  0.99701E-01  0.11061E+00  0.11456E+00  0.11724E+00  0.10676E+00  0.75983E-01  0.43298E-01  0.12175E-01 
  0.99000E+02  0.59580E-01  0.77375E-01  0.77592E-01  0.99652E-01  0.11055E+00  0.11451E+00  0.11718E+00  0.10670E+00  0.75945E-01  0.43277E-01  0.12169E-01 
  0.10000E+03  0.59550E-01  0.77336E-01  0.77553E-01  0.99601E-01  0.11050E+00  0.11445E+00  0.11712E+00  0.10665E+00  0.75907E-01  0.43255E-01  0.12163E-01 
  0.10100E+03  0.59517E-01  0.77294E-01  0.77510E-01  0.99547E-01  0.11044E+00  0.11438E+00  0.11706E+00  0.10659E+00  0.75865E-01  0.43231E-01  0.12156E-01 
  0.10200E+03  0.59482E-01  0.77248E-01  0.77465E-01  0.99488E-01  0.11037E+00  0.11432E+00  0.11699E+00  0.10653E+00  0.75821E-01  0.43206E-01  0.12149E-01 
  0.10300E+03  0.59446E-01  0.77201E-01  0.77417E-01  0.99427E-01  0.11030E+00  0.11425E+00  0.11692E+00  0.10646E+00  0.75774E-01  0.43179E-01  0.12142E-01 
  0.10400E+03  0.59408E-01  0.77152E-01  0.77368E-01  0.99364E-01  0.11023E+00  0.11417E+00  0.11684E+00  0.10640E+00  0.75726E-01  0.43152E-01  0.12134E-01 
  0.10500E+03  0.59370E-01  0.77102E-01  0.77318E-01  0.99300E-01  0.11016E+00  0.11410E+00  0.11677E+00  0.10633E+00  0.75677E-01  0.43124E-01  0.12126E-01 
  0.10600E+03  0.59332E-01  0.77053E-01  0.77269E-01  0.99236E-01  0.11009E+00  0.11403E+00  0.11669E+00  0.10626E+00  0.75629E-01  0.43096E-01  0.12118E-01 
  0.10700E+03  0.59293E-01  0.77003E-01  0.77219E-01  0.99172E-01  0.11002E+00  0.11395E+00  0.11662E+00  0.10619E+00  0.75580E-01  0.43069E-01  0.12111E-01 
  0.10800E+03  0.59255E-01  0.76953E-01  0.77169E-01  0.99108E-01  0.10995E+00  0.11388E+00  0.11654E+00  0.10612E+00  0.75531E-01  0.43041E-01  0.12103E-01 
  0.10900E+03  0.59217E-01  0.76904E-01  0.77119E-01  0.99045E-01  0.10988E+00  0.11381E+00  0.11647E+00  0.10605E+00  0.75483E-01  0.43013E-01  0.12095E-01 
  0.11000E+03  0.59180E-01  0.76855E-01  0.77071E-01  0.98982E-01  0.10981E+00  0.11374E+00  0.11639E+00  0.10599E+00  0.75435E-01  0.42986E-01  0.12087E-01 
  0.11100E+03  0.59145E-01  0.76810E-01  0.77025E-01  0.98924E-01  0.10975E+00  0.11367E+00  0.11633E+00  0.10592E+00  0.75390E-01  0.42961E-01  0.12080E-01 
  0.11200E+03  0.59113E-01  0.76769E-01  0.76984E-01  0.98871E-01  0.10969E+00  0.11361E+00  0.11626E+00  0.10587E+00  0.75350E-01  0.42938E-01  0.12074E-01 
  0.11300E+03  0.59085E-01  0.76733E-01  0.76948E-01  0.98825E-01  0.10964E+00  0.11355E+00  0.11621E+00  0.10582E+00  0.75315E-01  0.42918E-01  0.12068E-01 
  0.11400E+03  0.59062E-01  0.76703E-01  0.76918E-01  0.98786E-01  0.10959E+00  0.11351E+00  0.11616E+00  0.10578E+00  0.75285E-01  0.42901E-01  0.12063E-01 
  0.11500E+03  0.59043E-01  0.76678E-01  0.76893E-01  0.98754E-01  0.10956E+00  0.11347E+00  0.11613E+00  0.10574E+00  0.75261E-01  0.42887E-01  0.12060E-01 
  0.11600E+03  0.59027E-01  0.76656E-01  0.76871E-01  0.98726E-01  0.10953E+00  0.11344E+00  0.11609E+00  0.10571E+00  0.75240E-01  0.42875E-01  0.12056E-01 
  0.11700E+03  0.59011E-01  0.76636E-01  0.76851E-01  0.98700E-01  0.10950E+00  0.11341E+00  0.11606E+00  0.10569E+00  0.75220E-01  0.42864E-01  0.12053E-01 
  0.11800E+03  0.58995E-01  0.76615E-01  0.76830E-01  0.98673E-01  0.10947E+00  0.11338E+00  0.11603E+00  0.10566E+00  0.75199E-01  0.42852E-01  0.12050E-01 
  0.11900E+03  0.58976E-01  0.76591E-01  0.76806E-01  0.98642E-01  0.10943E+00  0.11334E+00  0.11599E+00  0.10562E+00  0.75176E-01  0.42838E-01  0.12046E-01 
  0.12000E+03  0.58955E-01  0.76564E-01  0.76778E-01  0.98607E-01  0.10939E+00  0.11330E+00  0.11595E+00  0.10558E+00  0.75149E-01  0.42823E-01  0.12042E-01 
  0.12100E+03  0.58931E-01  0.76533E-01  0.76748E-01  0.98567E-01  0.10935E+00  0.11326E+00  0.11591E+00  0.10554E+00  0.75119E-01  0.42806E-01  0.12037E-01 
  0.12200E+03  0.58906E-01  0.76500E-01  0.76715E-01  0.98525E-01  0.10930E+00  0.11321E+00  0.11586E+00  0.10550E+00  0.75086E-01  0.42787E-01  0.12032E-01 
  0.12300E+03  0.58880E-01  0.76466E-01  0.76680E-01  0.98480E-01  0.10925E+00  0.11316E+00  0.11580E+00  0.10545E+00  0.75053E-01  0.42768E-01  0.12026E-01 
  0.12400E+03  0.58852E-01  0.76430E-01  0.76645E-01  0.98435E-01  0.10920E+00  0.11311E+00  0.11575E+00  0.10540E+00  0.75018E-01  0.42748E-01  0.12021E-01 
  0.12500E+03  0.58825E-01  0.76394E-01  0.76609E-01  0.98389E-01  0.10915E+00  0.11305E+00  0.11570E+00  0.10535E+00  0.74983E-01  0.42728E-01  0.12015E-01 
  0.12600E+03  0.58797E-01  0.76359E-01  0.76573E-01  0.98342E-01  0.10910E+00  0.11300E+00  0.11564E+00  0.10530E+00  0.74947E-01  0.42708E-01  0.12009E-01 
  0.12700E+03  0.58771E-01  0.76324E-01  0.76538E-01  0.98298E-01  0.10905E+00  0.11295E+00  0.11559E+00  0.10525E+00  0.74914E-01  0.42689E-01  0.12004E-01 
  0.12800E+03  0.58746E-01  0.76292E-01  0.76506E-01  0.98257E-01  0.10901E+00  0.11290E+00  0.11554E+00  0.10521E+00  0.74882E-01  0.42671E-01  0.11999E-01 
  0.12900E+03  0.58723E-01  0.76262E-01  0.76476E-01  0.98218E-01  0.10896E+00  0.11286E+00  0.11550E+00  0.10517E+00  0.74853E-01  0.42654E-01  0.11994E-01 
  0.13000E+03  0.58701E-01  0.76233E-01  0.76447E-01  0.98181E-01  0.10892E+00  0.11282E+00  0.11545E+00  0.10513E+00  0.74825E-01  0.42638E-01  0.11990E-01 
  0.13100E+03  0.58678E-01  0.76204E-01  0.76417E-01  0.98143E-01  0.10888E+00  0.11277E+00  0.11541E+00  0.10509E+00  0.74795E-01  0.42622E-01  0.11985E-01 
  0.13200E+03  0.58652E-01  0.76170E-01  0.76384E-01  0.98100E-01  0.10883E+00  0.11272E+00  0.11536E+00  0.10504E+00  0.74763E-01  0.42603E-01  0.11980E-01 
  0.13300E+03  0.58624E-01  0.76133E-01  0.76347E-01  0.98053E-01  0.10878E+00  0.11267E+00  0.11530E+00  0.10499E+00  0.74727E-01  0.42582E-01  0.11974E-01 
  0.13400E+03  0.58593E-01  0.76094E-01  0.76307E-01  0.98002E-01  0.10872E+00  0.11261E+00  0.11524E+00  0.10494E+00  0.74688E-01  0.42560E-01  0.11968E-01 
  0.13500E+03  0.58563E-01  0.76054E-01  0.76267E-01  0.97950E-01  0.10867E+00  0.11255E+00  0.11518E+00  0.10488E+00  0.74649E-01  0.42538E-01  0.11961E-01 
  0.13600E+03  0.58533E-01  0.76016E-01  0.76229E-01  0.97901E-01  0.10861E+00  0.11249E+00  0.11512E+00  0.10483E+00  0.74611E-01  0.42516E-01  0.11955E-01 
  0.13700E+03  0.58506E-01  0.75980E-01  0.76193E-01  0.97855E-01  0.10856E+00  0.11244E+00  0.11507E+00  0.10478E+00  0.74576E-01  0.42497E-01  0.11950E-01 
  0.13800E+03  0.58481E-01  0.75947E-01  0.76160E-01  0.97813E-01  0.10851E+00  0.11239E+00  0.11502E+00  0.10473E+00  0.74544E-01  0.42478E-01  0.11945E-01 
  0.13900E+03  0.58457E-01  0.75917E-01  0.76129E-01  0.97773E-01  0.10847E+00  0.11235E+00  0.11497E+00  0.10469E+00  0.74514E-01  0.42461E-01  0.11940E-01 
  0.14000E+03  0.58434E-01  0.75887E-01  0.76099E-01  0.97735E-01  0.10843E+00  0.11230E+00  0.11493E+00  0.10465E+00  0.74484E-01  0.42444E-01  0.11935E-01 
  0.14100E+03  0.58411E-01  0.75857E-01  0.76070E-01  0.97696E-01  0.10838E+00  0.11226E+00  0.11488E+00  0.10461E+00  0.74455E-01  0.42428E-01  0.11930E-01 
  0.14200E+03  0.58388E-01  0.75827E-01  0.76040E-01  0.97658E-01  0.10834E+00  0.11221E+00  0.11484E+00  0.10457E+00  0.74426E-01  0.42411E-01  0.11926E-01 
  0.14300E+03  0.58366E-01  0.75799E-01  0.76012E-01  0.97622E-01  0.10830E+00  0.11217E+00  0.11479E+00  0.10453E+00  0.74398E-01  0.42395E-01  0.11921E-01 
  0.14400E+03  0.58346E-01  0.75773E-01  0.75985E-01  0.97588E-01  0.10826E+00  0.11213E+00  0.11475E+00  0.10449E+00  0.74372E-01  0.42381E-01  0.11917E-01 
  0.14500E+03  0.58327E-01  0.75748E-01  0.75960E-01  0.97556E-01  0.10823E+00  0.11210E+00  0.11472E+00  0.10446E+00  0.74348E-01  0.42367E-01  0.11913E-01 
  0.14600E+03  0.58309E-01  0.75725E-01  0.75937E-01  0.97526E-01  0.10820E+00  0.11206E+00  0.11468E+00  0.10443E+00  0.74325E-01  0.42354E-01  0.11910E-01 
  0.14700E+03  0.58291E-01  0.75702E-01  0.75914E-01  0.97497E-01  0.10816E+00  0.11203E+00  0.11465E+00  0.10440E+00  0.74303E-01  0.42341E-01  0.11906E-01 
  0.14800E+03  0.58274E-01  0.75679E-01  0.75891E-01  0.97467E-01  0.10813E+00  0.11199E+00  0.11461E+00  0.10436E+00  0.74280E-01  0.42328E-01  0.11902E-01 
  0.14900E+03  0.58255E-01  0.75654E-01  0.75866E-01  0.97436E-01  0.10810E+00  0.11196E+00  0.11458E+00  0.10433E+00  0.74256E-01  0.42314E-01  0.11899E-01 
  0.15000E+03  0.58235E-01  0.75629E-01  0.75841E-01  0.97403E-01  0.10806E+00  0.11192E+00  0.11454E+00  0.10430E+00  0.74231E-01  0.42300E-01  0.11895E-01 
  0.15100E+03  0.58215E-01  0.75603E-01  0.75815E-01  0.97369E-01  0.10802E+00  0.11188E+00  0.11450E+00  0.10426E+00  0.74206E-01  0.42285E-01  0.11890E-01 
  0.15200E+03  0.58194E-01  0.75576E-01  0.75788E-01  0.97334E-01  0.10798E+00  0.11184E+00  0.11446E+00  0.10422E+00  0.74179E-01  0.42270E-01  0.11886E-01 
  0.15300E+03  0.58174E-01  0.75549E-01  0.75761E-01  0.97300E-01  0.10795E+00  0.11180E+00  0.11442E+00  0.10419E+00  0.74153E-01  0.42255E-01  0.11882E-01 
  0.15400E+03  0.58153E-01  0.75523E-01  0.75734E-01  0.97266E-01  0.10791E+00  0.11176E+00  0.11438E+00  0.10415E+00  0.74127E-01  0.42241E-01  0.11878E-01 
  0.15500E+03  0.58134E-01  0.75497E-01  0.75709E-01  0.97233E-01  0.10787E+00  0.11173E+00  0.11434E+00  0.10411E+00  0.74102E-01  0.42226E-01  0.11874E-01 
  0.15600E+03  0.58115E-01  0.75473E-01  0.75684E-01  0.97202E-01  0.10784E+00  0.11169E+00  0.11430E+00  0.10408E+00  0.74078E-01  0.42213E-01  0.11870E-01 
  0.15700E+03  0.58097E-01  0.75449E-01  0.75661E-01  0.97172E-01  0.10780E+00  0.11166E+00  0.11427E+00  0.10405E+00  0.74055E-01  0.42200E-01  0.11866E-01 
  0.15800E+03  0.58080E-01  0.75427E-01  0.75639E-01  0.97143E-01  0.10777E+00  0.11162E+00  0.11423E+00  0.10402E+00  0.74033E-01  0.42187E-01  0.11863E-01 
  0.15900E+03  0.58063E-01  0.75405E-01  0.75617E-01  0.97115E-01  0.10774E+00  0.11159E+00  0.11420E+00  0.10399E+00  0.74012E-01  0.42175E-01  0.11859E-01 
  0.16000E+03  0.58047E-01  0.75384E-01  0.75595E-01  0.97087E-01  0.10771E+00  0.11156E+00  0.11417E+00  0.10396E+00  0.73991E-01  0.42163E-01  0.11856E-01 
  0.16100E+03  0.58029E-01  0.75361E-01  0.75573E-01  0.97058E-01  0.10768E+00  0.11152E+00  0.11413E+00  0.10393E+00  0.73969E-01  0.42151E-01  0.11852E-01 
  0.16200E+03  0.58011E-01  0.75338E-01  0.75549E-01  0.97028E-01  0.10764E+00  0.11149E+00  0.11410E+00  0.10389E+00  0.73946E-01  0.42138E-01  0.11849E-01 
  0.16300E+03  0.57993E-01  0.75314E-01  0.75525E-01  0.96997E-01  0.10761E+00  0.11145E+00  0.11406E+00  0.10386E+00  0.73922E-01  0.42124E-01  0.11845E-01 
  0.16400E+03  0.57974E-01  0.75289E-01  0.75500E-01  0.96965E-01  0.10757E+00  0.11142E+00  0.11402E+00  0.10383E+00  0.73898E-01  0.42110E-01  0.11841E-01 
  0.16500E+03  0.57955E-01  0.75265E-01  0.75476E-01  0.96934E-01  0.10754E+00  0.11138E+00  0.11399E+00  0.10379E+00  0.73874E-01  0.42097E-01  0.11837E-01 
  0.16600E+03  0.57937E-01  0.75242E-01  0.75453E-01  0.96905E-01  0.10751E+00  0.11135E+00  0.11395E+00  0.10376E+00  0.73852E-01  0.42084E-01  0.11834E-01 
  0.16700E+03  0.57921E-01  0.75221E-01  0.75432E-01  0.96877E-01  0.10748E+00  0.11132E+00  0.11392E+00  0.10373E+00  0.73831E-01  0.42072E-01  0.11830E-01 
  0.16800E+03  0.57906E-01  0.75201E-01  0.75412E-01  0.96851E-01  0.10745E+00  0.11129E+00  0.11389E+00  0.10371E+00  0.73811E-01  0.42061E-01  0.11827E-01 
  0.16900E+03  0.57891E-01  0.75181E-01  0.75392E-01  0.96826E-01  0.10742E+00  0.11126E+00  0.11386E+00  0.10368E+00  0.73792E-01  0.42050E-01  0.11824E-01 
  0.17000E+03  0.57876E-01  0.75162E-01  0.75373E-01  0.96802E-01  0.10739E+00  0.11123E+00  0.11383E+00  0.10365E+00  0.73773E-01  0.42039E-01  0.11821E-01 
  0.17100E+03  0.57861E-01  0.75143E-01  0.75353E-01  0.96777E-01  0.10736E+00  0.11120E+00  0.11380E+00  0.10363E+00  0.73754E-01  0.42028E-01  0.11818E-01 
  0.17200E+03  0.57846E-01  0.75123E-01  0.75333E-01  0.96751E-01  0.10734E+00  0.11117E+00  0.11377E+00  0.10360E+00  0.73735E-01  0.42017E-01  0.11815E-01 
  0.17300E+03  0.57830E-01  0.75102E-01  0.75313E-01  0.96725E-01  0.10731E+00  0.11114E+00  0.11374E+00  0.10357E+00  0.73715E-01  0.42006E-01  0.11812E-01 
  0.17400E+03  0.57814E-01  0.75082E-01  0.75292E-01  0.96698E-01  0.10728E+00  0.11111E+00  0.11371E+00  0.10354E+00  0.73694E-01  0.41994E-01  0.11809E-01 
  0.17500E+03  0.57799E-01  0.75062E-01  0.75272E-01  0.96672E-01  0.10725E+00  0.11108E+00  0.11368E+00  0.10351E+00  0.73675E-01  0.41983E-01  0.11805E-01 
  0.17600E+03  0.57784E-01  0.75043E-01  0.75253E-01  0.96648E-01  0.10722E+00  0.11105E+00  0.11365E+00  0.10349E+00  0.73656E-01  0.41972E-01  0.11802E-01 
  0.17700E+03  0.57770E-01  0.75025E-01  0.75235E-01  0.96625E-01  0.10720E+00  0.11103E+00  0.11362E+00  0.10346E+00  0.73638E-01  0.41962E-01  0.11799E-01 
  0.17800E+03  0.57757E-01  0.75008E-01  0.75218E-01  0.96602E-01  0.10717E+00  0.11100E+00  0.11360E+00  0.10344E+00  0.73621E-01  0.41953E-01  0.11797E-01 
  0.17900E+03  0.57744E-01  0.74991E-01  0.75201E-01  0.96581E-01  0.10715E+00  0.11098E+00  0.11357E+00  0.10342E+00  0.73605E-01  0.41943E-01  0.11794E-01 
  0.18000E+03  0.57730E-01  0.74973E-01  0.75183E-01  0.96558E-01  0.10712E+00  0.11095E+00  0.11354E+00  0.10339E+00  0.73588E-01  0.41933E-01  0.11791E-01 
  0.18100E+03  0.57716E-01  0.74954E-01  0.75164E-01  0.96533E-01  0.10709E+00  0.11092E+00  0.11351E+00  0.10336E+00  0.73569E-01  0.41923E-01  0.11788E-01 
  0.18200E+03  0.57699E-01  0.74933E-01  0.75143E-01  0.96507E-01  0.10706E+00  0.11089E+00  0.11348E+00  0.10334E+00  0.73548E-01  0.41911E-01  0.11785E-01 
  0.18300E+03  0.57682E-01  0.74911E-01  0.75121E-01  0.96478E-01  0.10703E+00  0.11086E+00  0.11345E+00  0.10331E+00  0.73526E-01  0.41898E-01  0.11782E-01 
  0.18400E+03  0.57664E-01  0.74888E-01  0.75098E-01  0.96448E-01  0.10700E+00  0.11082E+00  0.11341E+00  0.10327E+00  0.73504E-01  0.41886E-01  0.11778E-01 
  0.18500E+03  0.57647E-01  0.74865E-01  0.75074E-01  0.96418E-01  0.10697E+00  0.11079E+00  0.11338E+00  0.10324E+00  0.73481E-01  0.41873E-01  0.11774E-01 
  0.18600E+03  0.57630E-01  0.74842E-01  0.75052E-01  0.96390E-01  0.10694E+00  0.11076E+00  0.11335E+00  0.10321E+00  0.73459E-01  0.41860E-01  0.11771E-01 
  0.18700E+03  0.57613E-01  0.74821E-01  0.75031E-01  0.96362E-01  0.10690E+00  0.11073E+00  0.11331E+00  0.10318E+00  0.73438E-01  0.41848E-01  0.11767E-01 