TITLE = "Xsusc001_0"
VARIABLES = "time" 
 "   1" "   2" "   3" "   4" "   5" "   6" "   7" "   8" "   9" "  10" "  11"
 ZONE T="Xsusc001_0"  F=POINT, I=         601 , J=1, K=1
  0.00000E+00  0.66603E-01  0.86496E-01  0.86739E-01  0.11140E+00  0.12359E+00  0.12800E+00  0.13099E+00  0.11928E+00  0.84898E-01  0.48378E-01  0.13604E-01 
  0.10000E+01  0.66603E-01  0.86496E-01  0.86738E-01  0.11140E+00  0.12359E+00  0.12800E+00  0.13099E+00  0.11928E+00  0.84897E-01  0.48378E-01  0.13604E-01 
  0.20000E+01  0.66603E-01  0.86495E-01  0.86738E-01  0.11140E+00  0.12359E+00  0.12800E+00  0.13099E+00  0.11928E+00  0.84897E-01  0.48378E-01  0.13604E-01 
  0.30000E+01  0.66602E-01  0.86495E-01  0.86737E-01  0.11140E+00  0.12358E+00  0.12800E+00  0.13099E+00  0.11928E+00  0.84896E-01  0.48378E-01  0.13604E-01 
  0.40000E+01  0.66601E-01  0.86494E-01  0.86736E-01  0.11140E+00  0.12358E+00  0.12800E+00  0.13099E+00  0.11928E+00  0.84895E-01  0.48377E-01  0.13603E-01 
  0.50000E+01  0.66601E-01  0.86493E-01  0.86735E-01  0.11139E+00  0.12358E+00  0.12800E+00  0.13099E+00  0.11928E+00  0.84894E-01  0.48377E-01  0.13603E-01 
  0.60000E+01  0.66600E-01  0.86492E-01  0.86734E-01  0.11139E+00  0.12358E+00  0.12800E+00  0.13099E+00  0.11928E+00  0.84893E-01  0.48376E-01  0.13603E-01 
  0.70000E+01  0.66599E-01  0.86490E-01  0.86733E-01  0.11139E+00  0.12358E+00  0.12799E+00  0.13099E+00  0.11927E+00  0.84892E-01  0.48375E-01  0.13603E-01 
  0.80000E+01  0.66597E-01  0.86488E-01  0.86731E-01  0.11139E+00  0.12357E+00  0.12799E+00  0.13098E+00  0.11927E+00  0.84890E-01  0.48374E-01  0.13603E-01 
  0.90000E+01  0.66595E-01  0.86486E-01  0.86728E-01  0.11139E+00  0.12357E+00  0.12799E+00  0.13098E+00  0.11927E+00  0.84888E-01  0.48373E-01  0.13602E-01 
  0.10000E+02  0.66593E-01  0.86483E-01  0.86725E-01  0.11138E+00  0.12357E+00  0.12798E+00  0.13097E+00  0.11926E+00  0.84885E-01  0.48371E-01  0.13602E-01 
  0.11000E+02  0.66590E-01  0.86479E-01  0.86722E-01  0.11138E+00  0.12356E+00  0.12798E+00  0.13097E+00  0.11926E+00  0.84881E-01  0.48369E-01  0.13601E-01 
  0.12000E+02  0.66587E-01  0.86475E-01  0.86717E-01  0.11137E+00  0.12356E+00  0.12797E+00  0.13096E+00  0.11925E+00  0.84877E-01  0.48367E-01  0.13600E-01 
  0.13000E+02  0.66583E-01  0.86469E-01  0.86712E-01  0.11136E+00  0.12355E+00  0.12796E+00  0.13095E+00  0.11925E+00  0.84871E-01  0.48363E-01  0.13600E-01 
  0.14000E+02  0.66577E-01  0.86463E-01  0.86705E-01  0.11136E+00  0.12354E+00  0.12795E+00  0.13094E+00  0.11924E+00  0.84865E-01  0.48360E-01  0.13599E-01 
  0.15000E+02  0.66571E-01  0.86454E-01  0.86697E-01  0.11134E+00  0.12353E+00  0.12794E+00  0.13093E+00  0.11922E+00  0.84857E-01  0.48355E-01  0.13597E-01 
  0.16000E+02  0.66563E-01  0.86444E-01  0.86686E-01  0.11133E+00  0.12351E+00  0.12793E+00  0.13092E+00  0.11921E+00  0.84846E-01  0.48349E-01  0.13596E-01 
  0.17000E+02  0.66553E-01  0.86431E-01  0.86673E-01  0.11131E+00  0.12349E+00  0.12791E+00  0.13090E+00  0.11919E+00  0.84834E-01  0.48342E-01  0.13594E-01 
  0.18000E+02  0.66541E-01  0.86415E-01  0.86658E-01  0.11129E+00  0.12347E+00  0.12788E+00  0.13087E+00  0.11917E+00  0.84818E-01  0.48333E-01  0.13591E-01 
  0.19000E+02  0.66526E-01  0.86396E-01  0.86638E-01  0.11127E+00  0.12344E+00  0.12785E+00  0.13084E+00  0.11914E+00  0.84799E-01  0.48322E-01  0.13588E-01 
  0.20000E+02  0.66507E-01  0.86371E-01  0.86613E-01  0.11124E+00  0.12341E+00  0.12782E+00  0.13081E+00  0.11911E+00  0.84775E-01  0.48309E-01  0.13584E-01 
  0.21000E+02  0.66484E-01  0.86341E-01  0.86583E-01  0.11120E+00  0.12336E+00  0.12777E+00  0.13076E+00  0.11907E+00  0.84746E-01  0.48292E-01  0.13579E-01 
  0.22000E+02  0.66455E-01  0.86304E-01  0.86546E-01  0.11115E+00  0.12331E+00  0.12772E+00  0.13070E+00  0.11902E+00  0.84709E-01  0.48271E-01  0.13574E-01 
  0.23000E+02  0.66420E-01  0.86258E-01  0.86499E-01  0.11109E+00  0.12325E+00  0.12765E+00  0.13063E+00  0.11895E+00  0.84664E-01  0.48245E-01  0.13566E-01 
  0.24000E+02  0.66375E-01  0.86200E-01  0.86442E-01  0.11102E+00  0.12316E+00  0.12757E+00  0.13055E+00  0.11887E+00  0.84607E-01  0.48213E-01  0.13557E-01 
  0.25000E+02  0.66321E-01  0.86129E-01  0.86371E-01  0.11093E+00  0.12306E+00  0.12746E+00  0.13044E+00  0.11878E+00  0.84538E-01  0.48173E-01  0.13546E-01 
  0.26000E+02  0.66253E-01  0.86041E-01  0.86283E-01  0.11081E+00  0.12294E+00  0.12733E+00  0.13031E+00  0.11865E+00  0.84451E-01  0.48124E-01  0.13532E-01 
  0.27000E+02  0.66169E-01  0.85932E-01  0.86173E-01  0.11067E+00  0.12278E+00  0.12717E+00  0.13014E+00  0.11850E+00  0.84344E-01  0.48063E-01  0.13515E-01 
  0.28000E+02  0.66065E-01  0.85797E-01  0.86038E-01  0.11050E+00  0.12259E+00  0.12697E+00  0.12994E+00  0.11832E+00  0.84212E-01  0.47987E-01  0.13494E-01 
  0.29000E+02  0.65936E-01  0.85630E-01  0.85870E-01  0.11028E+00  0.12235E+00  0.12672E+00  0.12968E+00  0.11809E+00  0.84047E-01  0.47894E-01  0.13468E-01 
  0.30000E+02  0.65776E-01  0.85422E-01  0.85662E-01  0.11002E+00  0.12205E+00  0.12641E+00  0.12937E+00  0.11780E+00  0.83844E-01  0.47778E-01  0.13435E-01 
  0.31000E+02  0.65724E-01  0.85354E-01  0.85593E-01  0.10993E+00  0.12195E+00  0.12631E+00  0.12927E+00  0.11771E+00  0.83777E-01  0.47740E-01  0.13424E-01 
  0.32000E+02  0.65665E-01  0.85278E-01  0.85517E-01  0.10983E+00  0.12185E+00  0.12620E+00  0.12915E+00  0.11760E+00  0.83702E-01  0.47697E-01  0.13412E-01 
  0.33000E+02  0.65603E-01  0.85197E-01  0.85435E-01  0.10972E+00  0.12173E+00  0.12608E+00  0.12903E+00  0.11749E+00  0.83622E-01  0.47652E-01  0.13399E-01 
  0.34000E+02  0.65538E-01  0.85113E-01  0.85351E-01  0.10962E+00  0.12161E+00  0.12596E+00  0.12890E+00  0.11737E+00  0.83540E-01  0.47605E-01  0.13386E-01 
  0.35000E+02  0.65472E-01  0.85027E-01  0.85266E-01  0.10951E+00  0.12149E+00  0.12583E+00  0.12877E+00  0.11726E+00  0.83456E-01  0.47557E-01  0.13373E-01 
  0.36000E+02  0.65406E-01  0.84941E-01  0.85179E-01  0.10940E+00  0.12136E+00  0.12570E+00  0.12864E+00  0.11714E+00  0.83372E-01  0.47509E-01  0.13359E-01 
  0.37000E+02  0.65340E-01  0.84855E-01  0.85093E-01  0.10929E+00  0.12124E+00  0.12557E+00  0.12851E+00  0.11702E+00  0.83287E-01  0.47461E-01  0.13346E-01 
  0.38000E+02  0.65274E-01  0.84769E-01  0.85007E-01  0.10917E+00  0.12112E+00  0.12545E+00  0.12838E+00  0.11690E+00  0.83203E-01  0.47413E-01  0.13332E-01 
  0.39000E+02  0.65208E-01  0.84684E-01  0.84921E-01  0.10906E+00  0.12100E+00  0.12532E+00  0.12825E+00  0.11678E+00  0.83119E-01  0.47365E-01  0.13319E-01 
  0.40000E+02  0.65142E-01  0.84599E-01  0.84836E-01  0.10896E+00  0.12088E+00  0.12520E+00  0.12812E+00  0.11667E+00  0.83035E-01  0.47317E-01  0.13305E-01 
  0.41000E+02  0.65077E-01  0.84514E-01  0.84751E-01  0.10885E+00  0.12075E+00  0.12507E+00  0.12799E+00  0.11655E+00  0.82952E-01  0.47270E-01  0.13292E-01 
  0.42000E+02  0.65011E-01  0.84429E-01  0.84665E-01  0.10874E+00  0.12063E+00  0.12494E+00  0.12786E+00  0.11643E+00  0.82868E-01  0.47222E-01  0.13279E-01 
  0.43000E+02  0.64946E-01  0.84343E-01  0.84580E-01  0.10863E+00  0.12051E+00  0.12482E+00  0.12773E+00  0.11631E+00  0.82785E-01  0.47174E-01  0.13265E-01 
  0.44000E+02  0.64880E-01  0.84258E-01  0.84494E-01  0.10852E+00  0.12039E+00  0.12469E+00  0.12761E+00  0.11620E+00  0.82701E-01  0.47127E-01  0.13252E-01 
  0.45000E+02  0.64814E-01  0.84172E-01  0.84408E-01  0.10841E+00  0.12027E+00  0.12456E+00  0.12748E+00  0.11608E+00  0.82617E-01  0.47079E-01  0.13238E-01 
  0.46000E+02  0.64748E-01  0.84086E-01  0.84322E-01  0.10829E+00  0.12014E+00  0.12444E+00  0.12735E+00  0.11596E+00  0.82532E-01  0.47031E-01  0.13225E-01 
  0.47000E+02  0.64682E-01  0.84000E-01  0.84236E-01  0.10818E+00  0.12002E+00  0.12431E+00  0.12722E+00  0.11584E+00  0.82448E-01  0.46983E-01  0.13211E-01 
  0.48000E+02  0.64616E-01  0.83915E-01  0.84150E-01  0.10807E+00  0.11990E+00  0.12418E+00  0.12709E+00  0.11572E+00  0.82364E-01  0.46935E-01  0.13198E-01 
  0.49000E+02  0.64550E-01  0.83829E-01  0.84064E-01  0.10796E+00  0.11978E+00  0.12406E+00  0.12696E+00  0.11560E+00  0.82280E-01  0.46887E-01  0.13184E-01 
  0.50000E+02  0.64484E-01  0.83744E-01  0.83979E-01  0.10785E+00  0.11965E+00  0.12393E+00  0.12683E+00  0.11549E+00  0.82197E-01  0.46839E-01  0.13171E-01 
  0.51000E+02  0.64419E-01  0.83660E-01  0.83895E-01  0.10775E+00  0.11953E+00  0.12381E+00  0.12670E+00  0.11537E+00  0.82114E-01  0.46792E-01  0.13158E-01 
  0.52000E+02  0.64355E-01  0.83576E-01  0.83810E-01  0.10764E+00  0.11941E+00  0.12368E+00  0.12657E+00  0.11526E+00  0.82032E-01  0.46745E-01  0.13145E-01 
  0.53000E+02  0.64290E-01  0.83492E-01  0.83726E-01  0.10753E+00  0.11929E+00  0.12356E+00  0.12645E+00  0.11514E+00  0.81949E-01  0.46698E-01  0.13131E-01 
  0.54000E+02  0.64226E-01  0.83409E-01  0.83643E-01  0.10742E+00  0.11918E+00  0.12343E+00  0.12632E+00  0.11503E+00  0.81868E-01  0.46652E-01  0.13118E-01 
  0.55000E+02  0.64162E-01  0.83326E-01  0.83560E-01  0.10732E+00  0.11906E+00  0.12331E+00  0.12619E+00  0.11491E+00  0.81786E-01  0.46605E-01  0.13105E-01 
  0.56000E+02  0.64099E-01  0.83244E-01  0.83477E-01  0.10721E+00  0.11894E+00  0.12319E+00  0.12607E+00  0.11480E+00  0.81705E-01  0.46559E-01  0.13092E-01 
  0.57000E+02  0.64035E-01  0.83161E-01  0.83394E-01  0.10710E+00  0.11882E+00  0.12307E+00  0.12594E+00  0.11468E+00  0.81624E-01  0.46513E-01  0.13079E-01 
  0.58000E+02  0.63972E-01  0.83079E-01  0.83312E-01  0.10700E+00  0.11870E+00  0.12295E+00  0.12582E+00  0.11457E+00  0.81544E-01  0.46467E-01  0.13066E-01 
  0.59000E+02  0.63909E-01  0.82998E-01  0.83230E-01  0.10689E+00  0.11859E+00  0.12283E+00  0.12570E+00  0.11446E+00  0.81464E-01  0.46422E-01  0.13054E-01 
  0.60000E+02  0.63847E-01  0.82917E-01  0.83149E-01  0.10679E+00  0.11847E+00  0.12271E+00  0.12557E+00  0.11435E+00  0.81385E-01  0.46377E-01  0.13041E-01 
  0.61000E+02  0.63786E-01  0.82837E-01  0.83069E-01  0.10669E+00  0.11836E+00  0.12259E+00  0.12545E+00  0.11424E+00  0.81306E-01  0.46332E-01  0.13028E-01 
  0.62000E+02  0.63725E-01  0.82759E-01  0.82991E-01  0.10659E+00  0.11825E+00  0.12247E+00  0.12533E+00  0.11413E+00  0.81229E-01  0.46288E-01  0.13016E-01 
  0.63000E+02  0.63665E-01  0.82681E-01  0.82913E-01  0.10648E+00  0.11813E+00  0.12236E+00  0.12522E+00  0.11402E+00  0.81153E-01  0.46244E-01  0.13004E-01 
  0.64000E+02  0.63606E-01  0.82604E-01  0.82835E-01  0.10639E+00  0.11802E+00  0.12224E+00  0.12510E+00  0.11391E+00  0.81077E-01  0.46201E-01  0.12992E-01 
  0.65000E+02  0.63547E-01  0.82526E-01  0.82758E-01  0.10629E+00  0.11791E+00  0.12213E+00  0.12498E+00  0.11381E+00  0.81001E-01  0.46158E-01  0.12979E-01 
  0.66000E+02  0.63487E-01  0.82449E-01  0.82681E-01  0.10619E+00  0.11780E+00  0.12201E+00  0.12487E+00  0.11370E+00  0.80926E-01  0.46115E-01  0.12967E-01 
  0.67000E+02  0.63428E-01  0.82372E-01  0.82603E-01  0.10609E+00  0.11769E+00  0.12190E+00  0.12475E+00  0.11360E+00  0.80850E-01  0.46072E-01  0.12955E-01 
  0.68000E+02  0.63369E-01  0.82295E-01  0.82526E-01  0.10599E+00  0.11758E+00  0.12179E+00  0.12463E+00  0.11349E+00  0.80775E-01  0.46029E-01  0.12943E-01 
  0.69000E+02  0.63310E-01  0.82219E-01  0.82449E-01  0.10589E+00  0.11748E+00  0.12167E+00  0.12452E+00  0.11338E+00  0.80700E-01  0.45986E-01  0.12931E-01 
  0.70000E+02  0.63251E-01  0.82143E-01  0.82374E-01  0.10579E+00  0.11737E+00  0.12156E+00  0.12440E+00  0.11328E+00  0.80625E-01  0.45944E-01  0.12919E-01 
  0.71000E+02  0.63194E-01  0.82068E-01  0.82298E-01  0.10570E+00  0.11726E+00  0.12145E+00  0.12429E+00  0.11318E+00  0.80552E-01  0.45902E-01  0.12907E-01 
  0.72000E+02  0.63136E-01  0.81994E-01  0.82224E-01  0.10560E+00  0.11715E+00  0.12134E+00  0.12418E+00  0.11307E+00  0.80479E-01  0.45860E-01  0.12896E-01 
  0.73000E+02  0.63080E-01  0.81920E-01  0.82150E-01  0.10551E+00  0.11705E+00  0.12123E+00  0.12406E+00  0.11297E+00  0.80406E-01  0.45819E-01  0.12884E-01 
  0.74000E+02  0.63024E-01  0.81847E-01  0.82077E-01  0.10541E+00  0.11694E+00  0.12112E+00  0.12395E+00  0.11287E+00  0.80335E-01  0.45778E-01  0.12873E-01 
  0.75000E+02  0.62968E-01  0.81775E-01  0.82004E-01  0.10532E+00  0.11684E+00  0.12102E+00  0.12384E+00  0.11277E+00  0.80264E-01  0.45738E-01  0.12861E-01 
  0.76000E+02  0.62912E-01  0.81703E-01  0.81932E-01  0.10523E+00  0.11674E+00  0.12091E+00  0.12374E+00  0.11267E+00  0.80193E-01  0.45697E-01  0.12850E-01 
  0.77000E+02  0.62857E-01  0.81631E-01  0.81860E-01  0.10513E+00  0.11663E+00  0.12080E+00  0.12363E+00  0.11257E+00  0.80123E-01  0.45657E-01  0.12839E-01 
  0.78000E+02  0.62802E-01  0.81559E-01  0.81788E-01  0.10504E+00  0.11653E+00  0.12070E+00  0.12352E+00  0.11247E+00  0.80052E-01  0.45617E-01  0.12827E-01 
  0.79000E+02  0.62747E-01  0.81488E-01  0.81717E-01  0.10495E+00  0.11643E+00  0.12059E+00  0.12341E+00  0.11238E+00  0.79982E-01  0.45577E-01  0.12816E-01 
  0.80000E+02  0.62692E-01  0.81417E-01  0.81645E-01  0.10486E+00  0.11633E+00  0.12049E+00  0.12330E+00  0.11228E+00  0.79912E-01  0.45538E-01  0.12805E-01 
  0.81000E+02  0.62638E-01  0.81346E-01  0.81574E-01  0.10477E+00  0.11623E+00  0.12038E+00  0.12320E+00  0.11218E+00  0.79843E-01  0.45498E-01  0.12794E-01 
  0.82000E+02  0.62584E-01  0.81276E-01  0.81504E-01  0.10468E+00  0.11613E+00  0.12028E+00  0.12309E+00  0.11208E+00  0.79774E-01  0.45459E-01  0.12783E-01 
  0.83000E+02  0.62530E-01  0.81206E-01  0.81434E-01  0.10459E+00  0.11603E+00  0.12017E+00  0.12298E+00  0.11199E+00  0.79705E-01  0.45420E-01  0.12772E-01 
  0.84000E+02  0.62477E-01  0.81137E-01  0.81364E-01  0.10450E+00  0.11593E+00  0.12007E+00  0.12288E+00  0.11189E+00  0.79637E-01  0.45381E-01  0.12761E-01 
  0.85000E+02  0.62424E-01  0.81068E-01  0.81296E-01  0.10441E+00  0.11583E+00  0.11997E+00  0.12277E+00  0.11180E+00  0.79570E-01  0.45343E-01  0.12750E-01 
  0.86000E+02  0.62371E-01  0.81000E-01  0.81227E-01  0.10432E+00  0.11573E+00  0.11987E+00  0.12267E+00  0.11170E+00  0.79503E-01  0.45305E-01  0.12739E-01 
  0.87000E+02  0.62320E-01  0.80933E-01  0.81160E-01  0.10423E+00  0.11564E+00  0.11977E+00  0.12257E+00  0.11161E+00  0.79437E-01  0.45267E-01  0.12729E-01 
  0.88000E+02  0.62268E-01  0.80866E-01  0.81093E-01  0.10415E+00  0.11554E+00  0.11967E+00  0.12247E+00  0.11152E+00  0.79372E-01  0.45229E-01  0.12718E-01 
  0.89000E+02  0.62217E-01  0.80799E-01  0.81026E-01  0.10406E+00  0.11545E+00  0.11957E+00  0.12237E+00  0.11143E+00  0.79306E-01  0.45192E-01  0.12708E-01 
  0.90000E+02  0.62166E-01  0.80733E-01  0.80959E-01  0.10398E+00  0.11535E+00  0.11947E+00  0.12227E+00  0.11133E+00  0.79241E-01  0.45155E-01  0.12697E-01 
  0.91000E+02  0.62115E-01  0.80667E-01  0.80893E-01  0.10389E+00  0.11526E+00  0.11938E+00  0.12217E+00  0.11124E+00  0.79177E-01  0.45118E-01  0.12687E-01 
  0.92000E+02  0.62065E-01  0.80602E-01  0.80828E-01  0.10381E+00  0.11516E+00  0.11928E+00  0.12207E+00  0.11115E+00  0.79112E-01  0.45082E-01  0.12677E-01 
  0.93000E+02  0.62015E-01  0.80537E-01  0.80763E-01  0.10372E+00  0.11507E+00  0.11918E+00  0.12197E+00  0.11106E+00  0.79049E-01  0.45046E-01  0.12667E-01 
  0.94000E+02  0.61966E-01  0.80473E-01  0.80699E-01  0.10364E+00  0.11498E+00  0.11909E+00  0.12187E+00  0.11098E+00  0.78986E-01  0.45010E-01  0.12657E-01 
  0.95000E+02  0.61917E-01  0.80410E-01  0.80635E-01  0.10356E+00  0.11489E+00  0.11900E+00  0.12178E+00  0.11089E+00  0.78924E-01  0.44974E-01  0.12647E-01 
  0.96000E+02  0.61868E-01  0.80347E-01  0.80572E-01  0.10348E+00  0.11480E+00  0.11890E+00  0.12168E+00  0.11080E+00  0.78862E-01  0.44939E-01  0.12637E-01 
  0.97000E+02  0.61820E-01  0.80285E-01  0.80510E-01  0.10340E+00  0.11471E+00  0.11881E+00  0.12159E+00  0.11072E+00  0.78801E-01  0.44904E-01  0.12627E-01 
  0.98000E+02  0.61772E-01  0.80222E-01  0.80447E-01  0.10332E+00  0.11462E+00  0.11872E+00  0.12149E+00  0.11063E+00  0.78740E-01  0.44869E-01  0.12617E-01 
  0.99000E+02  0.61724E-01  0.80160E-01  0.80385E-01  0.10324E+00  0.11453E+00  0.11863E+00  0.12140E+00  0.11054E+00  0.78679E-01  0.44834E-01  0.12607E-01 
  0.10000E+03  0.61676E-01  0.80098E-01  0.80322E-01  0.10316E+00  0.11444E+00  0.11853E+00  0.12130E+00  0.11046E+00  0.78617E-01  0.44800E-01  0.12597E-01 
  0.10100E+03  0.61628E-01  0.80035E-01  0.80260E-01  0.10308E+00  0.11436E+00  0.11844E+00  0.12121E+00  0.11037E+00  0.78556E-01  0.44765E-01  0.12588E-01 
  0.10200E+03  0.61580E-01  0.79973E-01  0.80197E-01  0.10300E+00  0.11427E+00  0.11835E+00  0.12112E+00  0.11029E+00  0.78495E-01  0.44730E-01  0.12578E-01 
  0.10300E+03  0.61533E-01  0.79911E-01  0.80135E-01  0.10292E+00  0.11418E+00  0.11826E+00  0.12102E+00  0.11020E+00  0.78434E-01  0.44695E-01  0.12568E-01 
  0.10400E+03  0.61485E-01  0.79850E-01  0.80073E-01  0.10284E+00  0.11409E+00  0.11817E+00  0.12093E+00  0.11012E+00  0.78374E-01  0.44661E-01  0.12558E-01 
  0.10500E+03  0.61438E-01  0.79788E-01  0.80012E-01  0.10276E+00  0.11400E+00  0.11808E+00  0.12084E+00  0.11003E+00  0.78314E-01  0.44627E-01  0.12549E-01 
  0.10600E+03  0.61391E-01  0.79727E-01  0.79951E-01  0.10268E+00  0.11391E+00  0.11799E+00  0.12074E+00  0.10995E+00  0.78254E-01  0.44592E-01  0.12539E-01 
  0.10700E+03  0.61344E-01  0.79666E-01  0.79889E-01  0.10260E+00  0.11383E+00  0.11790E+00  0.12065E+00  0.10986E+00  0.78194E-01  0.44558E-01  0.12530E-01 
  0.10800E+03  0.61297E-01  0.79605E-01  0.79828E-01  0.10252E+00  0.11374E+00  0.11781E+00  0.12056E+00  0.10978E+00  0.78134E-01  0.44524E-01  0.12520E-01 
  0.10900E+03  0.61250E-01  0.79544E-01  0.79767E-01  0.10245E+00  0.11365E+00  0.11772E+00  0.12047E+00  0.10970E+00  0.78074E-01  0.44490E-01  0.12510E-01 
  0.11000E+03  0.61204E-01  0.79484E-01  0.79707E-01  0.10237E+00  0.11357E+00  0.11763E+00  0.12038E+00  0.10961E+00  0.78015E-01  0.44456E-01  0.12501E-01 
  0.11100E+03  0.61158E-01  0.79424E-01  0.79647E-01  0.10229E+00  0.11348E+00  0.11754E+00  0.12028E+00  0.10953E+00  0.77956E-01  0.44423E-01  0.12492E-01 
  0.11200E+03  0.61112E-01  0.79364E-01  0.79587E-01  0.10221E+00  0.11340E+00  0.11745E+00  0.12019E+00  0.10945E+00  0.77898E-01  0.44390E-01  0.12482E-01 
  0.11300E+03  0.61067E-01  0.79306E-01  0.79528E-01  0.10214E+00  0.11331E+00  0.11736E+00  0.12011E+00  0.10937E+00  0.77840E-01  0.44357E-01  0.12473E-01 
  0.11400E+03  0.61022E-01  0.79248E-01  0.79470E-01  0.10206E+00  0.11323E+00  0.11728E+00  0.12002E+00  0.10929E+00  0.77784E-01  0.44325E-01  0.12464E-01 
  0.11500E+03  0.60978E-01  0.79191E-01  0.79413E-01  0.10199E+00  0.11315E+00  0.11719E+00  0.11993E+00  0.10921E+00  0.77728E-01  0.44293E-01  0.12455E-01 
  0.11600E+03  0.60935E-01  0.79135E-01  0.79357E-01  0.10192E+00  0.11307E+00  0.11711E+00  0.11985E+00  0.10913E+00  0.77672E-01  0.44261E-01  0.12446E-01 
  0.11700E+03  0.60892E-01  0.79079E-01  0.79301E-01  0.10185E+00  0.11299E+00  0.11703E+00  0.11976E+00  0.10905E+00  0.77618E-01  0.44230E-01  0.12437E-01 
  0.11800E+03  0.60849E-01  0.79023E-01  0.79245E-01  0.10177E+00  0.11291E+00  0.11694E+00  0.11968E+00  0.10898E+00  0.77563E-01  0.44199E-01  0.12429E-01 
  0.11900E+03  0.60807E-01  0.78968E-01  0.79190E-01  0.10170E+00  0.11283E+00  0.11686E+00  0.11959E+00  0.10890E+00  0.77509E-01  0.44168E-01  0.12420E-01 
  0.12000E+03  0.60764E-01  0.78913E-01  0.79135E-01  0.10163E+00  0.11275E+00  0.11678E+00  0.11951E+00  0.10883E+00  0.77455E-01  0.44137E-01  0.12411E-01 
  0.12100E+03  0.60722E-01  0.78859E-01  0.79080E-01  0.10156E+00  0.11267E+00  0.11670E+00  0.11943E+00  0.10875E+00  0.77401E-01  0.44107E-01  0.12403E-01 
  0.12200E+03  0.60681E-01  0.78804E-01  0.79025E-01  0.10149E+00  0.11260E+00  0.11662E+00  0.11935E+00  0.10867E+00  0.77348E-01  0.44076E-01  0.12394E-01 
  0.12300E+03  0.60639E-01  0.78751E-01  0.78971E-01  0.10142E+00  0.11252E+00  0.11654E+00  0.11926E+00  0.10860E+00  0.77295E-01  0.44046E-01  0.12386E-01 
  0.12400E+03  0.60598E-01  0.78698E-01  0.78918E-01  0.10135E+00  0.11244E+00  0.11646E+00  0.11918E+00  0.10853E+00  0.77243E-01  0.44017E-01  0.12377E-01 
  0.12500E+03  0.60558E-01  0.78645E-01  0.78865E-01  0.10129E+00  0.11237E+00  0.11638E+00  0.11910E+00  0.10846E+00  0.77192E-01  0.43987E-01  0.12369E-01 
  0.12600E+03  0.60518E-01  0.78593E-01  0.78813E-01  0.10122E+00  0.11229E+00  0.11631E+00  0.11903E+00  0.10838E+00  0.77141E-01  0.43958E-01  0.12361E-01 
  0.12700E+03  0.60478E-01  0.78542E-01  0.78762E-01  0.10115E+00  0.11222E+00  0.11623E+00  0.11895E+00  0.10831E+00  0.77091E-01  0.43930E-01  0.12353E-01 
  0.12800E+03  0.60440E-01  0.78492E-01  0.78712E-01  0.10109E+00  0.11215E+00  0.11616E+00  0.11887E+00  0.10824E+00  0.77041E-01  0.43901E-01  0.12345E-01 
  0.12900E+03  0.60401E-01  0.78442E-01  0.78662E-01  0.10103E+00  0.11208E+00  0.11608E+00  0.11880E+00  0.10817E+00  0.76992E-01  0.43873E-01  0.12337E-01 
  0.13000E+03  0.60363E-01  0.78392E-01  0.78612E-01  0.10096E+00  0.11201E+00  0.11601E+00  0.11872E+00  0.10811E+00  0.76944E-01  0.43846E-01  0.12329E-01 
  0.13100E+03  0.60326E-01  0.78344E-01  0.78563E-01  0.10090E+00  0.11194E+00  0.11594E+00  0.11865E+00  0.10804E+00  0.76896E-01  0.43819E-01  0.12322E-01 
  0.13200E+03  0.60288E-01  0.78295E-01  0.78515E-01  0.10084E+00  0.11187E+00  0.11587E+00  0.11857E+00  0.10797E+00  0.76848E-01  0.43791E-01  0.12314E-01 
  0.13300E+03  0.60251E-01  0.78247E-01  0.78466E-01  0.10077E+00  0.11180E+00  0.11579E+00  0.11850E+00  0.10791E+00  0.76801E-01  0.43764E-01  0.12306E-01 
  0.13400E+03  0.60214E-01  0.78199E-01  0.78418E-01  0.10071E+00  0.11173E+00  0.11572E+00  0.11843E+00  0.10784E+00  0.76754E-01  0.43738E-01  0.12299E-01 
  0.13500E+03  0.60178E-01  0.78151E-01  0.78370E-01  0.10065E+00  0.11166E+00  0.11565E+00  0.11836E+00  0.10777E+00  0.76707E-01  0.43711E-01  0.12291E-01 
  0.13600E+03  0.60141E-01  0.78104E-01  0.78323E-01  0.10059E+00  0.11160E+00  0.11558E+00  0.11829E+00  0.10771E+00  0.76661E-01  0.43685E-01  0.12284E-01 
  0.13700E+03  0.60105E-01  0.78057E-01  0.78276E-01  0.10053E+00  0.11153E+00  0.11551E+00  0.11821E+00  0.10764E+00  0.76615E-01  0.43658E-01  0.12277E-01 
  0.13800E+03  0.60069E-01  0.78010E-01  0.78229E-01  0.10047E+00  0.11146E+00  0.11545E+00  0.11814E+00  0.10758E+00  0.76569E-01  0.43632E-01  0.12269E-01 
  0.13900E+03  0.60034E-01  0.77964E-01  0.78183E-01  0.10041E+00  0.11140E+00  0.11538E+00  0.11807E+00  0.10752E+00  0.76523E-01  0.43606E-01  0.12262E-01 
  0.14000E+03  0.59998E-01  0.77918E-01  0.78137E-01  0.10035E+00  0.11133E+00  0.11531E+00  0.11800E+00  0.10745E+00  0.76479E-01  0.43581E-01  0.12255E-01 
  0.14100E+03  0.59963E-01  0.77873E-01  0.78091E-01  0.10029E+00  0.11127E+00  0.11524E+00  0.11794E+00  0.10739E+00  0.76434E-01  0.43555E-01  0.12248E-01 
  0.14200E+03  0.59929E-01  0.77828E-01  0.78047E-01  0.10024E+00  0.11120E+00  0.11518E+00  0.11787E+00  0.10733E+00  0.76390E-01  0.43530E-01  0.12241E-01 
  0.14300E+03  0.59895E-01  0.77784E-01  0.78002E-01  0.10018E+00  0.11114E+00  0.11511E+00  0.11780E+00  0.10727E+00  0.76346E-01  0.43506E-01  0.12234E-01 
  0.14400E+03  0.59861E-01  0.77740E-01  0.77958E-01  0.10012E+00  0.11108E+00  0.11504E+00  0.11773E+00  0.10721E+00  0.76303E-01  0.43481E-01  0.12227E-01 
  0.14500E+03  0.59827E-01  0.77696E-01  0.77914E-01  0.10006E+00  0.11101E+00  0.11498E+00  0.11767E+00  0.10715E+00  0.76260E-01  0.43456E-01  0.12220E-01 
  0.14600E+03  0.59793E-01  0.77652E-01  0.77870E-01  0.10001E+00  0.11095E+00  0.11491E+00  0.11760E+00  0.10709E+00  0.76217E-01  0.43432E-01  0.12213E-01 
  0.14700E+03  0.59760E-01  0.77609E-01  0.77826E-01  0.99952E-01  0.11089E+00  0.11485E+00  0.11754E+00  0.10703E+00  0.76175E-01  0.43408E-01  0.12206E-01 
  0.14800E+03  0.59726E-01  0.77565E-01  0.77783E-01  0.99897E-01  0.11083E+00  0.11479E+00  0.11747E+00  0.10697E+00  0.76132E-01  0.43383E-01  0.12199E-01 
  0.14900E+03  0.59693E-01  0.77522E-01  0.77740E-01  0.99841E-01  0.11076E+00  0.11472E+00  0.11740E+00  0.10691E+00  0.76090E-01  0.43359E-01  0.12192E-01 
  0.15000E+03  0.59661E-01  0.77480E-01  0.77697E-01  0.99787E-01  0.11070E+00  0.11466E+00  0.11734E+00  0.10685E+00  0.76048E-01  0.43336E-01  0.12186E-01 
  0.15100E+03  0.59628E-01  0.77438E-01  0.77655E-01  0.99732E-01  0.11064E+00  0.11460E+00  0.11728E+00  0.10679E+00  0.76007E-01  0.43312E-01  0.12179E-01 
  0.15200E+03  0.59596E-01  0.77396E-01  0.77613E-01  0.99679E-01  0.11058E+00  0.11454E+00  0.11721E+00  0.10673E+00  0.75966E-01  0.43289E-01  0.12173E-01 
  0.15300E+03  0.59565E-01  0.77355E-01  0.77572E-01  0.99626E-01  0.11053E+00  0.11448E+00  0.11715E+00  0.10668E+00  0.75926E-01  0.43266E-01  0.12166E-01 
  0.15400E+03  0.59533E-01  0.77314E-01  0.77531E-01  0.99573E-01  0.11047E+00  0.11442E+00  0.11709E+00  0.10662E+00  0.75886E-01  0.43243E-01  0.12160E-01 
  0.15500E+03  0.59502E-01  0.77274E-01  0.77491E-01  0.99522E-01  0.11041E+00  0.11436E+00  0.11703E+00  0.10656E+00  0.75846E-01  0.43220E-01  0.12153E-01 
  0.15600E+03  0.59471E-01  0.77234E-01  0.77451E-01  0.99470E-01  0.11035E+00  0.11430E+00  0.11697E+00  0.10651E+00  0.75807E-01  0.43198E-01  0.12147E-01 
  0.15700E+03  0.59441E-01  0.77194E-01  0.77411E-01  0.99419E-01  0.11030E+00  0.11424E+00  0.11691E+00  0.10645E+00  0.75768E-01  0.43176E-01  0.12141E-01 
  0.15800E+03  0.59410E-01  0.77155E-01  0.77371E-01  0.99368E-01  0.11024E+00  0.11418E+00  0.11685E+00  0.10640E+00  0.75729E-01  0.43154E-01  0.12135E-01 
  0.15900E+03  0.59380E-01  0.77116E-01  0.77332E-01  0.99317E-01  0.11018E+00  0.11412E+00  0.11679E+00  0.10635E+00  0.75690E-01  0.43132E-01  0.12128E-01 
  0.16000E+03  0.59350E-01  0.77077E-01  0.77293E-01  0.99267E-01  0.11013E+00  0.11406E+00  0.11673E+00  0.10629E+00  0.75652E-01  0.43110E-01  0.12122E-01 
  0.16100E+03  0.59320E-01  0.77038E-01  0.77254E-01  0.99218E-01  0.11007E+00  0.11401E+00  0.11667E+00  0.10624E+00  0.75614E-01  0.43088E-01  0.12116E-01 
  0.16200E+03  0.59291E-01  0.77000E-01  0.77216E-01  0.99168E-01  0.11002E+00  0.11395E+00  0.11661E+00  0.10619E+00  0.75577E-01  0.43067E-01  0.12110E-01 
  0.16300E+03  0.59262E-01  0.76962E-01  0.77178E-01  0.99119E-01  0.10996E+00  0.11389E+00  0.11656E+00  0.10613E+00  0.75540E-01  0.43046E-01  0.12104E-01 
  0.16400E+03  0.59233E-01  0.76924E-01  0.77140E-01  0.99071E-01  0.10991E+00  0.11384E+00  0.11650E+00  0.10608E+00  0.75503E-01  0.43025E-01  0.12098E-01 
  0.16500E+03  0.59204E-01  0.76887E-01  0.77103E-01  0.99023E-01  0.10986E+00  0.11378E+00  0.11644E+00  0.10603E+00  0.75466E-01  0.43004E-01  0.12093E-01 
  0.16600E+03  0.59176E-01  0.76850E-01  0.77066E-01  0.98976E-01  0.10980E+00  0.11373E+00  0.11639E+00  0.10598E+00  0.75430E-01  0.42983E-01  0.12087E-01 
  0.16700E+03  0.59148E-01  0.76814E-01  0.77029E-01  0.98928E-01  0.10975E+00  0.11367E+00  0.11633E+00  0.10593E+00  0.75394E-01  0.42963E-01  0.12081E-01 
  0.16800E+03  0.59120E-01  0.76777E-01  0.76992E-01  0.98882E-01  0.10970E+00  0.11362E+00  0.11628E+00  0.10588E+00  0.75358E-01  0.42942E-01  0.12075E-01 
  0.16900E+03  0.59092E-01  0.76741E-01  0.76956E-01  0.98835E-01  0.10965E+00  0.11357E+00  0.11622E+00  0.10583E+00  0.75323E-01  0.42922E-01  0.12070E-01 
  0.17000E+03  0.59064E-01  0.76705E-01  0.76920E-01  0.98789E-01  0.10960E+00  0.11351E+00  0.11617E+00  0.10578E+00  0.75288E-01  0.42902E-01  0.12064E-01 
  0.17100E+03  0.59036E-01  0.76669E-01  0.76884E-01  0.98743E-01  0.10955E+00  0.11346E+00  0.11611E+00  0.10573E+00  0.75252E-01  0.42882E-01  0.12058E-01 
  0.17200E+03  0.59009E-01  0.76634E-01  0.76849E-01  0.98697E-01  0.10950E+00  0.11341E+00  0.11606E+00  0.10568E+00  0.75218E-01  0.42862E-01  0.12053E-01 
  0.17300E+03  0.58982E-01  0.76599E-01  0.76814E-01  0.98652E-01  0.10944E+00  0.11336E+00  0.11601E+00  0.10563E+00  0.75183E-01  0.42843E-01  0.12047E-01 
  0.17400E+03  0.58955E-01  0.76564E-01  0.76779E-01  0.98607E-01  0.10940E+00  0.11330E+00  0.11595E+00  0.10559E+00  0.75149E-01  0.42823E-01  0.12042E-01 
  0.17500E+03  0.58929E-01  0.76529E-01  0.76744E-01  0.98562E-01  0.10935E+00  0.11325E+00  0.11590E+00  0.10554E+00  0.75115E-01  0.42804E-01  0.12036E-01 
  0.17600E+03  0.58902E-01  0.76495E-01  0.76709E-01  0.98518E-01  0.10930E+00  0.11320E+00  0.11585E+00  0.10549E+00  0.75081E-01  0.42785E-01  0.12031E-01 
  0.17700E+03  0.58876E-01  0.76461E-01  0.76675E-01  0.98474E-01  0.10925E+00  0.11315E+00  0.11580E+00  0.10544E+00  0.75048E-01  0.42765E-01  0.12025E-01 
  0.17800E+03  0.58850E-01  0.76427E-01  0.76641E-01  0.98430E-01  0.10920E+00  0.11310E+00  0.11575E+00  0.10540E+00  0.75014E-01  0.42746E-01  0.12020E-01 
  0.17900E+03  0.58824E-01  0.76393E-01  0.76607E-01  0.98386E-01  0.10915E+00  0.11305E+00  0.11569E+00  0.10535E+00  0.74981E-01  0.42727E-01  0.12015E-01 
  0.18000E+03  0.58798E-01  0.76359E-01  0.76573E-01  0.98343E-01  0.10910E+00  0.11300E+00  0.11564E+00  0.10530E+00  0.74948E-01  0.42709E-01  0.12010E-01 
  0.18100E+03  0.58772E-01  0.76326E-01  0.76540E-01  0.98300E-01  0.10905E+00  0.11295E+00  0.11559E+00  0.10526E+00  0.74915E-01  0.42690E-01  0.12004E-01 
  0.18200E+03  0.58747E-01  0.76293E-01  0.76507E-01  0.98258E-01  0.10901E+00  0.11290E+00  0.11554E+00  0.10521E+00  0.74883E-01  0.42672E-01  0.11999E-01 
  0.18300E+03  0.58722E-01  0.76260E-01  0.76474E-01  0.98216E-01  0.10896E+00  0.11286E+00  0.11549E+00  0.10517E+00  0.74851E-01  0.42653E-01  0.11994E-01 
  0.18400E+03  0.58697E-01  0.76228E-01  0.76442E-01  0.98175E-01  0.10892E+00  0.11281E+00  0.11544E+00  0.10512E+00  0.74820E-01  0.42635E-01  0.11989E-01 
  0.18500E+03  0.58672E-01  0.76196E-01  0.76410E-01  0.98134E-01  0.10887E+00  0.11276E+00  0.11540E+00  0.10508E+00  0.74788E-01  0.42618E-01  0.11984E-01 
  0.18600E+03  0.58648E-01  0.76165E-01  0.76378E-01  0.98093E-01  0.10882E+00  0.11271E+00  0.11535E+00  0.10503E+00  0.74757E-01  0.42600E-01  0.11979E-01 
  0.18700E+03  0.58624E-01  0.76133E-01  0.76347E-01  0.98053E-01  0.10878E+00  0.11267E+00  0.11530E+00  0.10499E+00  0.74727E-01  0.42582E-01  0.11974E-01 