 TITLE = "Dead"
 VARIABLES = "time" 
 "  1" "  2" "  3" "  4" "  5" "  6" "  7" "  8" "  9" " 10"
 ZONE T="Average"  F=POINT, I=  200, J=1, K=1
    0.000        0.000        0.000        0.000        0.000        0.000        0.000        0.000        0.000        0.000        0.000    
    1.834       0.1292       0.1292       0.1292       0.1292       0.1292       0.1292       0.1292       0.1292       0.1292       0.1292    
    3.668       0.4629       0.4629       0.4629       0.4629       0.4629       0.4629       0.4629       0.4629       0.4629       0.4629    
    5.503       0.9841       0.9841       0.9841       0.9841       0.9841       0.9841       0.9841       0.9841       0.9841       0.9841    
    7.337        1.716        1.716        1.716        1.716        1.716        1.716        1.716        1.716        1.716        1.716    
    9.171        2.700        2.700        2.700        2.700        2.700        2.700        2.700        2.700        2.700        2.700    
    11.01        3.994        3.994        3.994        3.994        3.994        3.994        3.994        3.994        3.994        3.994    
    12.84        5.669        5.669        5.669        5.669        5.669        5.669        5.669        5.669        5.669        5.669    
    14.67        7.817        7.817        7.817        7.817        7.817        7.817        7.817        7.817        7.817        7.817    
    16.51        10.55        10.55        10.55        10.55        10.55        10.55        10.55        10.55        10.55        10.55    
    18.34        14.01        14.01        14.01        14.01        14.01        14.01        14.01        14.01        14.01        14.01    
    20.18        18.38        18.38        18.38        18.38        18.38        18.38        18.38        18.38        18.38        18.38    
    22.01        23.88        23.88        23.88        23.88        23.88        23.88        23.88        23.88        23.88        23.88    
    23.84        30.78        30.78        30.78        30.78        30.78        30.78        30.78        30.78        30.78        30.78    
    25.68        39.42        39.42        39.42        39.42        39.42        39.42        39.42        39.42        39.42        39.42    
    27.51        50.24        50.24        50.24        50.24        50.24        50.24        50.24        50.24        50.24        50.24    
    29.35        63.77        63.77        63.77        63.77        63.77        63.77        63.77        63.77        63.77        63.77    
    31.18        80.68        80.68        80.68        80.68        80.68        80.68        80.68        80.68        80.68        80.68    
    33.02        101.8        101.8        101.8        101.8        101.8        101.8        101.8        101.8        101.8        101.8    
    34.85        128.1        128.1        128.1        128.1        128.1        128.1        128.1        128.1        128.1        128.1    
    36.68        160.9        160.9        160.9        160.9        160.9        160.9        160.9        160.9        160.9        160.9    
    38.52        201.8        201.8        201.8        201.8        201.8        201.8        201.8        201.8        201.8        201.8    
    40.35        252.7        252.7        252.7        252.7        252.7        252.7        252.7        252.7        252.7        252.7    
    42.19        316.0        316.0        316.0        316.0        316.0        316.0        316.0        316.0        316.0        316.0    
    44.02        394.6        394.6        394.6        394.6        394.6        394.6        394.6        394.6        394.6        394.6    
    45.85        492.2        492.2        492.2        492.2        492.2        492.2        492.2        492.2        492.2        492.2    
    47.69        613.0        613.0        613.0        613.0        613.0        613.0        613.0        613.0        613.0        613.0    
    49.52        762.4        762.4        762.4        762.4        762.4        762.4        762.4        762.4        762.4        762.4    
    51.36        946.7        946.7        946.7        946.7        946.7        946.7        946.7        946.7        946.7        946.7    
    53.19        1173.        1173.        1173.        1173.        1173.        1173.        1173.        1173.        1173.        1173.    
    55.03        1451.        1451.        1451.        1451.        1451.        1451.        1451.        1451.        1451.        1451.    
    56.86        1791.        1791.        1791.        1791.        1791.        1791.        1791.        1791.        1791.        1791.    
    58.69        2203.        2203.        2203.        2203.        2203.        2203.        2203.        2203.        2203.        2203.    
    60.53        2698.        2698.        2698.        2698.        2698.        2698.        2698.        2698.        2698.        2698.    
    62.36        3278.        3278.        3278.        3278.        3278.        3278.        3278.        3278.        3278.        3278.    
    64.20        3934.        3934.        3934.        3934.        3934.        3934.        3934.        3934.        3934.        3934.    
    66.03        4657.        4657.        4657.        4657.        4657.        4657.        4657.        4657.        4657.        4657.    
    67.86        5436.        5436.        5436.        5436.        5436.        5436.        5436.        5436.        5436.        5436.    
    69.70        6261.        6261.        6261.        6261.        6261.        6261.        6261.        6261.        6261.        6261.    
    71.53        7123.        7123.        7123.        7123.        7123.        7123.        7123.        7123.        7123.        7123.    
    73.37        8013.        8013.        8013.        8013.        8013.        8013.        8013.        8013.        8013.        8013.    
    75.20        8923.        8923.        8923.        8923.        8923.        8923.        8923.        8923.        8923.        8923.    
    77.04        9846.        9846.        9846.        9846.        9846.        9846.        9846.        9846.        9846.        9846.    
    78.87       0.1078E+05   0.1078E+05   0.1078E+05   0.1078E+05   0.1078E+05   0.1078E+05   0.1078E+05   0.1078E+05   0.1078E+05   0.1078E+05
    80.70       0.1171E+05   0.1171E+05   0.1171E+05   0.1171E+05   0.1171E+05   0.1171E+05   0.1171E+05   0.1171E+05   0.1171E+05   0.1171E+05
    82.54       0.1263E+05   0.1263E+05   0.1263E+05   0.1263E+05   0.1263E+05   0.1263E+05   0.1263E+05   0.1263E+05   0.1263E+05   0.1263E+05
    84.37       0.1355E+05   0.1355E+05   0.1355E+05   0.1355E+05   0.1355E+05   0.1355E+05   0.1355E+05   0.1355E+05   0.1355E+05   0.1355E+05
    86.21       0.1446E+05   0.1446E+05   0.1446E+05   0.1446E+05   0.1446E+05   0.1446E+05   0.1446E+05   0.1446E+05   0.1446E+05   0.1446E+05
    88.04       0.1535E+05   0.1535E+05   0.1535E+05   0.1535E+05   0.1535E+05   0.1535E+05   0.1535E+05   0.1535E+05   0.1535E+05   0.1535E+05
    89.87       0.1623E+05   0.1623E+05   0.1623E+05   0.1623E+05   0.1623E+05   0.1623E+05   0.1623E+05   0.1623E+05   0.1623E+05   0.1623E+05
    91.71       0.1708E+05   0.1708E+05   0.1708E+05   0.1708E+05   0.1708E+05   0.1708E+05   0.1708E+05   0.1708E+05   0.1708E+05   0.1708E+05
    93.54       0.1792E+05   0.1792E+05   0.1792E+05   0.1792E+05   0.1792E+05   0.1792E+05   0.1792E+05   0.1792E+05   0.1792E+05   0.1792E+05
    95.38       0.1873E+05   0.1873E+05   0.1873E+05   0.1873E+05   0.1873E+05   0.1873E+05   0.1873E+05   0.1873E+05   0.1873E+05   0.1873E+05
    97.21       0.1952E+05   0.1952E+05   0.1952E+05   0.1952E+05   0.1952E+05   0.1952E+05   0.1952E+05   0.1952E+05   0.1952E+05   0.1952E+05
    99.05       0.2028E+05   0.2028E+05   0.2028E+05   0.2028E+05   0.2028E+05   0.2028E+05   0.2028E+05   0.2028E+05   0.2028E+05   0.2028E+05
    100.9       0.2101E+05   0.2101E+05   0.2101E+05   0.2101E+05   0.2101E+05   0.2101E+05   0.2101E+05   0.2101E+05   0.2101E+05   0.2101E+05
    102.7       0.2172E+05   0.2172E+05   0.2172E+05   0.2172E+05   0.2172E+05   0.2172E+05   0.2172E+05   0.2172E+05   0.2172E+05   0.2172E+05
    104.5       0.2241E+05   0.2241E+05   0.2241E+05   0.2241E+05   0.2241E+05   0.2241E+05   0.2241E+05   0.2241E+05   0.2241E+05   0.2241E+05
    106.4       0.2306E+05   0.2306E+05   0.2306E+05   0.2306E+05   0.2306E+05   0.2306E+05   0.2306E+05   0.2306E+05   0.2306E+05   0.2306E+05
    108.2       0.2369E+05   0.2369E+05   0.2369E+05   0.2369E+05   0.2369E+05   0.2369E+05   0.2369E+05   0.2369E+05   0.2369E+05   0.2369E+05
    110.1       0.2430E+05   0.2430E+05   0.2430E+05   0.2430E+05   0.2430E+05   0.2430E+05   0.2430E+05   0.2430E+05   0.2430E+05   0.2430E+05
    111.9       0.2488E+05   0.2488E+05   0.2488E+05   0.2488E+05   0.2488E+05   0.2488E+05   0.2488E+05   0.2488E+05   0.2488E+05   0.2488E+05
    113.7       0.2543E+05   0.2543E+05   0.2543E+05   0.2543E+05   0.2543E+05   0.2543E+05   0.2543E+05   0.2543E+05   0.2543E+05   0.2543E+05
    115.6       0.2596E+05   0.2596E+05   0.2596E+05   0.2596E+05   0.2596E+05   0.2596E+05   0.2596E+05   0.2596E+05   0.2596E+05   0.2596E+05
    117.4       0.2647E+05   0.2647E+05   0.2647E+05   0.2647E+05   0.2647E+05   0.2647E+05   0.2647E+05   0.2647E+05   0.2647E+05   0.2647E+05
    119.2       0.2695E+05   0.2695E+05   0.2695E+05   0.2695E+05   0.2695E+05   0.2695E+05   0.2695E+05   0.2695E+05   0.2695E+05   0.2695E+05
    121.1       0.2742E+05   0.2742E+05   0.2742E+05   0.2742E+05   0.2742E+05   0.2742E+05   0.2742E+05   0.2742E+05   0.2742E+05   0.2742E+05
    122.9       0.2785E+05   0.2785E+05   0.2785E+05   0.2785E+05   0.2785E+05   0.2785E+05   0.2785E+05   0.2785E+05   0.2785E+05   0.2785E+05
    124.7       0.2827E+05   0.2827E+05   0.2827E+05   0.2827E+05   0.2827E+05   0.2827E+05   0.2827E+05   0.2827E+05   0.2827E+05   0.2827E+05
    126.6       0.2867E+05   0.2867E+05   0.2867E+05   0.2867E+05   0.2867E+05   0.2867E+05   0.2867E+05   0.2867E+05   0.2867E+05   0.2867E+05
    128.4       0.2905E+05   0.2905E+05   0.2905E+05   0.2905E+05   0.2905E+05   0.2905E+05   0.2905E+05   0.2905E+05   0.2905E+05   0.2905E+05
    130.2       0.2941E+05   0.2941E+05   0.2941E+05   0.2941E+05   0.2941E+05   0.2941E+05   0.2941E+05   0.2941E+05   0.2941E+05   0.2941E+05
    132.1       0.2975E+05   0.2975E+05   0.2975E+05   0.2975E+05   0.2975E+05   0.2975E+05   0.2975E+05   0.2975E+05   0.2975E+05   0.2975E+05
    133.9       0.3007E+05   0.3007E+05   0.3007E+05   0.3007E+05   0.3007E+05   0.3007E+05   0.3007E+05   0.3007E+05   0.3007E+05   0.3007E+05
    135.7       0.3038E+05   0.3038E+05   0.3038E+05   0.3038E+05   0.3038E+05   0.3038E+05   0.3038E+05   0.3038E+05   0.3038E+05   0.3038E+05
    137.6       0.3067E+05   0.3067E+05   0.3067E+05   0.3067E+05   0.3067E+05   0.3067E+05   0.3067E+05   0.3067E+05   0.3067E+05   0.3067E+05
    139.4       0.3094E+05   0.3094E+05   0.3094E+05   0.3094E+05   0.3094E+05   0.3094E+05   0.3094E+05   0.3094E+05   0.3094E+05   0.3094E+05
    141.2       0.3120E+05   0.3120E+05   0.3120E+05   0.3120E+05   0.3120E+05   0.3120E+05   0.3120E+05   0.3120E+05   0.3120E+05   0.3120E+05
    143.1       0.3145E+05   0.3145E+05   0.3145E+05   0.3145E+05   0.3145E+05   0.3145E+05   0.3145E+05   0.3145E+05   0.3145E+05   0.3145E+05
    144.9       0.3168E+05   0.3168E+05   0.3168E+05   0.3168E+05   0.3168E+05   0.3168E+05   0.3168E+05   0.3168E+05   0.3168E+05   0.3168E+05
    146.7       0.3190E+05   0.3190E+05   0.3190E+05   0.3190E+05   0.3190E+05   0.3190E+05   0.3190E+05   0.3190E+05   0.3190E+05   0.3190E+05
    148.6       0.3211E+05   0.3211E+05   0.3211E+05   0.3211E+05   0.3211E+05   0.3211E+05   0.3211E+05   0.3211E+05   0.3211E+05   0.3211E+05
    150.4       0.3231E+05   0.3231E+05   0.3231E+05   0.3231E+05   0.3231E+05   0.3231E+05   0.3231E+05   0.3231E+05   0.3231E+05   0.3231E+05
    152.2       0.3250E+05   0.3250E+05   0.3250E+05   0.3250E+05   0.3250E+05   0.3250E+05   0.3250E+05   0.3250E+05   0.3250E+05   0.3250E+05
    154.1       0.3267E+05   0.3267E+05   0.3267E+05   0.3267E+05   0.3267E+05   0.3267E+05   0.3267E+05   0.3267E+05   0.3267E+05   0.3267E+05
    155.9       0.3284E+05   0.3284E+05   0.3284E+05   0.3284E+05   0.3284E+05   0.3284E+05   0.3284E+05   0.3284E+05   0.3284E+05   0.3284E+05
    157.7       0.3300E+05   0.3300E+05   0.3300E+05   0.3300E+05   0.3300E+05   0.3300E+05   0.3300E+05   0.3300E+05   0.3300E+05   0.3300E+05
    159.6       0.3315E+05   0.3315E+05   0.3315E+05   0.3315E+05   0.3315E+05   0.3315E+05   0.3315E+05   0.3315E+05   0.3315E+05   0.3315E+05
    161.4       0.3329E+05   0.3329E+05   0.3329E+05   0.3329E+05   0.3329E+05   0.3329E+05   0.3329E+05   0.3329E+05   0.3329E+05   0.3329E+05
    163.2       0.3342E+05   0.3342E+05   0.3342E+05   0.3342E+05   0.3342E+05   0.3342E+05   0.3342E+05   0.3342E+05   0.3342E+05   0.3342E+05
    165.1       0.3354E+05   0.3354E+05   0.3354E+05   0.3354E+05   0.3354E+05   0.3354E+05   0.3354E+05   0.3354E+05   0.3354E+05   0.3354E+05
    166.9       0.3366E+05   0.3366E+05   0.3366E+05   0.3366E+05   0.3366E+05   0.3366E+05   0.3366E+05   0.3366E+05   0.3366E+05   0.3366E+05
    168.7       0.3377E+05   0.3377E+05   0.3377E+05   0.3377E+05   0.3377E+05   0.3377E+05   0.3377E+05   0.3377E+05   0.3377E+05   0.3377E+05
    170.6       0.3388E+05   0.3388E+05   0.3388E+05   0.3388E+05   0.3388E+05   0.3388E+05   0.3388E+05   0.3388E+05   0.3388E+05   0.3388E+05
    172.4       0.3397E+05   0.3397E+05   0.3397E+05   0.3397E+05   0.3397E+05   0.3397E+05   0.3397E+05   0.3397E+05   0.3397E+05   0.3397E+05
    174.2       0.3407E+05   0.3407E+05   0.3407E+05   0.3407E+05   0.3407E+05   0.3407E+05   0.3407E+05   0.3407E+05   0.3407E+05   0.3407E+05
    176.1       0.3415E+05   0.3415E+05   0.3415E+05   0.3415E+05   0.3415E+05   0.3415E+05   0.3415E+05   0.3415E+05   0.3415E+05   0.3415E+05
    177.9       0.3424E+05   0.3424E+05   0.3424E+05   0.3424E+05   0.3424E+05   0.3424E+05   0.3424E+05   0.3424E+05   0.3424E+05   0.3424E+05
    179.7       0.3431E+05   0.3431E+05   0.3431E+05   0.3431E+05   0.3431E+05   0.3431E+05   0.3431E+05   0.3431E+05   0.3431E+05   0.3431E+05
    181.6       0.3439E+05   0.3439E+05   0.3439E+05   0.3439E+05   0.3439E+05   0.3439E+05   0.3439E+05   0.3439E+05   0.3439E+05   0.3439E+05
    183.4       0.3446E+05   0.3446E+05   0.3446E+05   0.3446E+05   0.3446E+05   0.3446E+05   0.3446E+05   0.3446E+05   0.3446E+05   0.3446E+05
    185.3       0.3452E+05   0.3452E+05   0.3452E+05   0.3452E+05   0.3452E+05   0.3452E+05   0.3452E+05   0.3452E+05   0.3452E+05   0.3452E+05
    187.1       0.3458E+05   0.3458E+05   0.3458E+05   0.3458E+05   0.3458E+05   0.3458E+05   0.3458E+05   0.3458E+05   0.3458E+05   0.3458E+05
    188.9       0.3464E+05   0.3464E+05   0.3464E+05   0.3464E+05   0.3464E+05   0.3464E+05   0.3464E+05   0.3464E+05   0.3464E+05   0.3464E+05
    190.8       0.3469E+05   0.3469E+05   0.3469E+05   0.3469E+05   0.3469E+05   0.3469E+05   0.3469E+05   0.3469E+05   0.3469E+05   0.3469E+05
    192.6       0.3475E+05   0.3475E+05   0.3475E+05   0.3475E+05   0.3475E+05   0.3475E+05   0.3475E+05   0.3475E+05   0.3475E+05   0.3475E+05
    194.4       0.3479E+05   0.3479E+05   0.3479E+05   0.3479E+05   0.3479E+05   0.3479E+05   0.3479E+05   0.3479E+05   0.3479E+05   0.3479E+05
    196.3       0.3484E+05   0.3484E+05   0.3484E+05   0.3484E+05   0.3484E+05   0.3484E+05   0.3484E+05   0.3484E+05   0.3484E+05   0.3484E+05
    198.1       0.3488E+05   0.3488E+05   0.3488E+05   0.3488E+05   0.3488E+05   0.3488E+05   0.3488E+05   0.3488E+05   0.3488E+05   0.3488E+05
    199.9       0.3492E+05   0.3492E+05   0.3492E+05   0.3492E+05   0.3492E+05   0.3492E+05   0.3492E+05   0.3492E+05   0.3492E+05   0.3492E+05
    201.8       0.3496E+05   0.3496E+05   0.3496E+05   0.3496E+05   0.3496E+05   0.3496E+05   0.3496E+05   0.3496E+05   0.3496E+05   0.3496E+05
    203.6       0.3499E+05   0.3499E+05   0.3499E+05   0.3499E+05   0.3499E+05   0.3499E+05   0.3499E+05   0.3499E+05   0.3499E+05   0.3499E+05
    205.4       0.3503E+05   0.3503E+05   0.3503E+05   0.3503E+05   0.3503E+05   0.3503E+05   0.3503E+05   0.3503E+05   0.3503E+05   0.3503E+05
    207.3       0.3506E+05   0.3506E+05   0.3506E+05   0.3506E+05   0.3506E+05   0.3506E+05   0.3506E+05   0.3506E+05   0.3506E+05   0.3506E+05
    209.1       0.3509E+05   0.3509E+05   0.3509E+05   0.3509E+05   0.3509E+05   0.3509E+05   0.3509E+05   0.3509E+05   0.3509E+05   0.3509E+05
    210.9       0.3512E+05   0.3512E+05   0.3512E+05   0.3512E+05   0.3512E+05   0.3512E+05   0.3512E+05   0.3512E+05   0.3512E+05   0.3512E+05
    212.8       0.3514E+05   0.3514E+05   0.3514E+05   0.3514E+05   0.3514E+05   0.3514E+05   0.3514E+05   0.3514E+05   0.3514E+05   0.3514E+05
    214.6       0.3517E+05   0.3517E+05   0.3517E+05   0.3517E+05   0.3517E+05   0.3517E+05   0.3517E+05   0.3517E+05   0.3517E+05   0.3517E+05
    216.4       0.3519E+05   0.3519E+05   0.3519E+05   0.3519E+05   0.3519E+05   0.3519E+05   0.3519E+05   0.3519E+05   0.3519E+05   0.3519E+05
    218.3       0.3521E+05   0.3521E+05   0.3521E+05   0.3521E+05   0.3521E+05   0.3521E+05   0.3521E+05   0.3521E+05   0.3521E+05   0.3521E+05
    220.1       0.3523E+05   0.3523E+05   0.3523E+05   0.3523E+05   0.3523E+05   0.3523E+05   0.3523E+05   0.3523E+05   0.3523E+05   0.3523E+05
    221.9       0.3525E+05   0.3525E+05   0.3525E+05   0.3525E+05   0.3525E+05   0.3525E+05   0.3525E+05   0.3525E+05   0.3525E+05   0.3525E+05
    223.8       0.3527E+05   0.3527E+05   0.3527E+05   0.3527E+05   0.3527E+05   0.3527E+05   0.3527E+05   0.3527E+05   0.3527E+05   0.3527E+05
    225.6       0.3529E+05   0.3529E+05   0.3529E+05   0.3529E+05   0.3529E+05   0.3529E+05   0.3529E+05   0.3529E+05   0.3529E+05   0.3529E+05
    227.4       0.3530E+05   0.3530E+05   0.3530E+05   0.3530E+05   0.3530E+05   0.3530E+05   0.3530E+05   0.3530E+05   0.3530E+05   0.3530E+05
    229.3       0.3532E+05   0.3532E+05   0.3532E+05   0.3532E+05   0.3532E+05   0.3532E+05   0.3532E+05   0.3532E+05   0.3532E+05   0.3532E+05
    231.1       0.3533E+05   0.3533E+05   0.3533E+05   0.3533E+05   0.3533E+05   0.3533E+05   0.3533E+05   0.3533E+05   0.3533E+05   0.3533E+05
    232.9       0.3534E+05   0.3534E+05   0.3534E+05   0.3534E+05   0.3534E+05   0.3534E+05   0.3534E+05   0.3534E+05   0.3534E+05   0.3534E+05
    234.8       0.3536E+05   0.3536E+05   0.3536E+05   0.3536E+05   0.3536E+05   0.3536E+05   0.3536E+05   0.3536E+05   0.3536E+05   0.3536E+05
    236.6       0.3537E+05   0.3537E+05   0.3537E+05   0.3537E+05   0.3537E+05   0.3537E+05   0.3537E+05   0.3537E+05   0.3537E+05   0.3537E+05
    238.4       0.3538E+05   0.3538E+05   0.3538E+05   0.3538E+05   0.3538E+05   0.3538E+05   0.3538E+05   0.3538E+05   0.3538E+05   0.3538E+05
    240.3       0.3539E+05   0.3539E+05   0.3539E+05   0.3539E+05   0.3539E+05   0.3539E+05   0.3539E+05   0.3539E+05   0.3539E+05   0.3539E+05
    242.1       0.3540E+05   0.3540E+05   0.3540E+05   0.3540E+05   0.3540E+05   0.3540E+05   0.3540E+05   0.3540E+05   0.3540E+05   0.3540E+05
    243.9       0.3541E+05   0.3541E+05   0.3541E+05   0.3541E+05   0.3541E+05   0.3541E+05   0.3541E+05   0.3541E+05   0.3541E+05   0.3541E+05
    245.8       0.3542E+05   0.3542E+05   0.3542E+05   0.3542E+05   0.3542E+05   0.3542E+05   0.3542E+05   0.3542E+05   0.3542E+05   0.3542E+05
    247.6       0.3542E+05   0.3542E+05   0.3542E+05   0.3542E+05   0.3542E+05   0.3542E+05   0.3542E+05   0.3542E+05   0.3542E+05   0.3542E+05
    249.4       0.3543E+05   0.3543E+05   0.3543E+05   0.3543E+05   0.3543E+05   0.3543E+05   0.3543E+05   0.3543E+05   0.3543E+05   0.3543E+05
    251.3       0.3544E+05   0.3544E+05   0.3544E+05   0.3544E+05   0.3544E+05   0.3544E+05   0.3544E+05   0.3544E+05   0.3544E+05   0.3544E+05
    253.1       0.3545E+05   0.3545E+05   0.3545E+05   0.3545E+05   0.3545E+05   0.3545E+05   0.3545E+05   0.3545E+05   0.3545E+05   0.3545E+05
    254.9       0.3545E+05   0.3545E+05   0.3545E+05   0.3545E+05   0.3545E+05   0.3545E+05   0.3545E+05   0.3545E+05   0.3545E+05   0.3545E+05
    256.8       0.3546E+05   0.3546E+05   0.3546E+05   0.3546E+05   0.3546E+05   0.3546E+05   0.3546E+05   0.3546E+05   0.3546E+05   0.3546E+05
    258.6       0.3546E+05   0.3546E+05   0.3546E+05   0.3546E+05   0.3546E+05   0.3546E+05   0.3546E+05   0.3546E+05   0.3546E+05   0.3546E+05
    260.5       0.3547E+05   0.3547E+05   0.3547E+05   0.3547E+05   0.3547E+05   0.3547E+05   0.3547E+05   0.3547E+05   0.3547E+05   0.3547E+05
    262.3       0.3547E+05   0.3547E+05   0.3547E+05   0.3547E+05   0.3547E+05   0.3547E+05   0.3547E+05   0.3547E+05   0.3547E+05   0.3547E+05
    264.1       0.3548E+05   0.3548E+05   0.3548E+05   0.3548E+05   0.3548E+05   0.3548E+05   0.3548E+05   0.3548E+05   0.3548E+05   0.3548E+05
    266.0       0.3548E+05   0.3548E+05   0.3548E+05   0.3548E+05   0.3548E+05   0.3548E+05   0.3548E+05   0.3548E+05   0.3548E+05   0.3548E+05
    267.8       0.3549E+05   0.3549E+05   0.3549E+05   0.3549E+05   0.3549E+05   0.3549E+05   0.3549E+05   0.3549E+05   0.3549E+05   0.3549E+05
    269.6       0.3549E+05   0.3549E+05   0.3549E+05   0.3549E+05   0.3549E+05   0.3549E+05   0.3549E+05   0.3549E+05   0.3549E+05   0.3549E+05
    271.5       0.3549E+05   0.3549E+05   0.3549E+05   0.3549E+05   0.3549E+05   0.3549E+05   0.3549E+05   0.3549E+05   0.3549E+05   0.3549E+05
    273.3       0.3550E+05   0.3550E+05   0.3550E+05   0.3550E+05   0.3550E+05   0.3550E+05   0.3550E+05   0.3550E+05   0.3550E+05   0.3550E+05
    275.1       0.3550E+05   0.3550E+05   0.3550E+05   0.3550E+05   0.3550E+05   0.3550E+05   0.3550E+05   0.3550E+05   0.3550E+05   0.3550E+05
    277.0       0.3550E+05   0.3550E+05   0.3550E+05   0.3550E+05   0.3550E+05   0.3550E+05   0.3550E+05   0.3550E+05   0.3550E+05   0.3550E+05
    278.8       0.3551E+05   0.3551E+05   0.3551E+05   0.3551E+05   0.3551E+05   0.3551E+05   0.3551E+05   0.3551E+05   0.3551E+05   0.3551E+05
    280.6       0.3551E+05   0.3551E+05   0.3551E+05   0.3551E+05   0.3551E+05   0.3551E+05   0.3551E+05   0.3551E+05   0.3551E+05   0.3551E+05
    282.5       0.3551E+05   0.3551E+05   0.3551E+05   0.3551E+05   0.3551E+05   0.3551E+05   0.3551E+05   0.3551E+05   0.3551E+05   0.3551E+05
    284.3       0.3551E+05   0.3551E+05   0.3551E+05   0.3551E+05   0.3551E+05   0.3551E+05   0.3551E+05   0.3551E+05   0.3551E+05   0.3551E+05
    286.1       0.3552E+05   0.3552E+05   0.3552E+05   0.3552E+05   0.3552E+05   0.3552E+05   0.3552E+05   0.3552E+05   0.3552E+05   0.3552E+05
    288.0       0.3552E+05   0.3552E+05   0.3552E+05   0.3552E+05   0.3552E+05   0.3552E+05   0.3552E+05   0.3552E+05   0.3552E+05   0.3552E+05
    289.8       0.3552E+05   0.3552E+05   0.3552E+05   0.3552E+05   0.3552E+05   0.3552E+05   0.3552E+05   0.3552E+05   0.3552E+05   0.3552E+05
    291.6       0.3552E+05   0.3552E+05   0.3552E+05   0.3552E+05   0.3552E+05   0.3552E+05   0.3552E+05   0.3552E+05   0.3552E+05   0.3552E+05
    293.5       0.3552E+05   0.3552E+05   0.3552E+05   0.3552E+05   0.3552E+05   0.3552E+05   0.3552E+05   0.3552E+05   0.3552E+05   0.3552E+05
    295.3       0.3552E+05   0.3552E+05   0.3552E+05   0.3552E+05   0.3552E+05   0.3552E+05   0.3552E+05   0.3552E+05   0.3552E+05   0.3552E+05
    297.1       0.3553E+05   0.3553E+05   0.3553E+05   0.3553E+05   0.3553E+05   0.3553E+05   0.3553E+05   0.3553E+05   0.3553E+05   0.3553E+05
    299.0       0.3553E+05   0.3553E+05   0.3553E+05   0.3553E+05   0.3553E+05   0.3553E+05   0.3553E+05   0.3553E+05   0.3553E+05   0.3553E+05
    300.8       0.3553E+05   0.3553E+05   0.3553E+05   0.3553E+05   0.3553E+05   0.3553E+05   0.3553E+05   0.3553E+05   0.3553E+05   0.3553E+05
    302.6       0.3553E+05   0.3553E+05   0.3553E+05   0.3553E+05   0.3553E+05   0.3553E+05   0.3553E+05   0.3553E+05   0.3553E+05   0.3553E+05
    304.5       0.3553E+05   0.3553E+05   0.3553E+05   0.3553E+05   0.3553E+05   0.3553E+05   0.3553E+05   0.3553E+05   0.3553E+05   0.3553E+05
    306.3       0.3553E+05   0.3553E+05   0.3553E+05   0.3553E+05   0.3553E+05   0.3553E+05   0.3553E+05   0.3553E+05   0.3553E+05   0.3553E+05
    308.1       0.3553E+05   0.3553E+05   0.3553E+05   0.3553E+05   0.3553E+05   0.3553E+05   0.3553E+05   0.3553E+05   0.3553E+05   0.3553E+05
    310.0       0.3553E+05   0.3553E+05   0.3553E+05   0.3553E+05   0.3553E+05   0.3553E+05   0.3553E+05   0.3553E+05   0.3553E+05   0.3553E+05
    311.8       0.3553E+05   0.3553E+05   0.3553E+05   0.3553E+05   0.3553E+05   0.3553E+05   0.3553E+05   0.3553E+05   0.3553E+05   0.3553E+05
    313.6       0.3554E+05   0.3554E+05   0.3554E+05   0.3554E+05   0.3554E+05   0.3554E+05   0.3554E+05   0.3554E+05   0.3554E+05   0.3554E+05
    315.5       0.3554E+05   0.3554E+05   0.3554E+05   0.3554E+05   0.3554E+05   0.3554E+05   0.3554E+05   0.3554E+05   0.3554E+05   0.3554E+05
    317.3       0.3554E+05   0.3554E+05   0.3554E+05   0.3554E+05   0.3554E+05   0.3554E+05   0.3554E+05   0.3554E+05   0.3554E+05   0.3554E+05
    319.1       0.3554E+05   0.3554E+05   0.3554E+05   0.3554E+05   0.3554E+05   0.3554E+05   0.3554E+05   0.3554E+05   0.3554E+05   0.3554E+05
    321.0       0.3554E+05   0.3554E+05   0.3554E+05   0.3554E+05   0.3554E+05   0.3554E+05   0.3554E+05   0.3554E+05   0.3554E+05   0.3554E+05
    322.8       0.3554E+05   0.3554E+05   0.3554E+05   0.3554E+05   0.3554E+05   0.3554E+05   0.3554E+05   0.3554E+05   0.3554E+05   0.3554E+05
    324.6       0.3554E+05   0.3554E+05   0.3554E+05   0.3554E+05   0.3554E+05   0.3554E+05   0.3554E+05   0.3554E+05   0.3554E+05   0.3554E+05
    326.5       0.3554E+05   0.3554E+05   0.3554E+05   0.3554E+05   0.3554E+05   0.3554E+05   0.3554E+05   0.3554E+05   0.3554E+05   0.3554E+05
    328.3       0.3554E+05   0.3554E+05   0.3554E+05   0.3554E+05   0.3554E+05   0.3554E+05   0.3554E+05   0.3554E+05   0.3554E+05   0.3554E+05
    330.2       0.3554E+05   0.3554E+05   0.3554E+05   0.3554E+05   0.3554E+05   0.3554E+05   0.3554E+05   0.3554E+05   0.3554E+05   0.3554E+05
    332.0       0.3554E+05   0.3554E+05   0.3554E+05   0.3554E+05   0.3554E+05   0.3554E+05   0.3554E+05   0.3554E+05   0.3554E+05   0.3554E+05
    333.8       0.3554E+05   0.3554E+05   0.3554E+05   0.3554E+05   0.3554E+05   0.3554E+05   0.3554E+05   0.3554E+05   0.3554E+05   0.3554E+05
    335.7       0.3554E+05   0.3554E+05   0.3554E+05   0.3554E+05   0.3554E+05   0.3554E+05   0.3554E+05   0.3554E+05   0.3554E+05   0.3554E+05
    337.5       0.3554E+05   0.3554E+05   0.3554E+05   0.3554E+05   0.3554E+05   0.3554E+05   0.3554E+05   0.3554E+05   0.3554E+05   0.3554E+05
    339.3       0.3554E+05   0.3554E+05   0.3554E+05   0.3554E+05   0.3554E+05   0.3554E+05   0.3554E+05   0.3554E+05   0.3554E+05   0.3554E+05
    341.2       0.3554E+05   0.3554E+05   0.3554E+05   0.3554E+05   0.3554E+05   0.3554E+05   0.3554E+05   0.3554E+05   0.3554E+05   0.3554E+05
    343.0       0.3554E+05   0.3554E+05   0.3554E+05   0.3554E+05   0.3554E+05   0.3554E+05   0.3554E+05   0.3554E+05   0.3554E+05   0.3554E+05
    344.8       0.3554E+05   0.3554E+05   0.3554E+05   0.3554E+05   0.3554E+05   0.3554E+05   0.3554E+05   0.3554E+05   0.3554E+05   0.3554E+05
    346.7       0.3554E+05   0.3554E+05   0.3554E+05   0.3554E+05   0.3554E+05   0.3554E+05   0.3554E+05   0.3554E+05   0.3554E+05   0.3554E+05
    348.5       0.3554E+05   0.3554E+05   0.3554E+05   0.3554E+05   0.3554E+05   0.3554E+05   0.3554E+05   0.3554E+05   0.3554E+05   0.3554E+05
    350.3       0.3554E+05   0.3554E+05   0.3554E+05   0.3554E+05   0.3554E+05   0.3554E+05   0.3554E+05   0.3554E+05   0.3554E+05   0.3554E+05
    352.2       0.3555E+05   0.3555E+05   0.3555E+05   0.3555E+05   0.3555E+05   0.3555E+05   0.3555E+05   0.3555E+05   0.3555E+05   0.3555E+05
    354.0       0.3555E+05   0.3555E+05   0.3555E+05   0.3555E+05   0.3555E+05   0.3555E+05   0.3555E+05   0.3555E+05   0.3555E+05   0.3555E+05
    355.8       0.3555E+05   0.3555E+05   0.3555E+05   0.3555E+05   0.3555E+05   0.3555E+05   0.3555E+05   0.3555E+05   0.3555E+05   0.3555E+05
    357.7       0.3555E+05   0.3555E+05   0.3555E+05   0.3555E+05   0.3555E+05   0.3555E+05   0.3555E+05   0.3555E+05   0.3555E+05   0.3555E+05
    359.5       0.3555E+05   0.3555E+05   0.3555E+05   0.3555E+05   0.3555E+05   0.3555E+05   0.3555E+05   0.3555E+05   0.3555E+05   0.3555E+05
    361.3       0.3555E+05   0.3555E+05   0.3555E+05   0.3555E+05   0.3555E+05   0.3555E+05   0.3555E+05   0.3555E+05   0.3555E+05   0.3555E+05
    363.2       0.3555E+05   0.3555E+05   0.3555E+05   0.3555E+05   0.3555E+05   0.3555E+05   0.3555E+05   0.3555E+05   0.3555E+05   0.3555E+05
    365.0       0.3555E+05   0.3555E+05   0.3555E+05   0.3555E+05   0.3555E+05   0.3555E+05   0.3555E+05   0.3555E+05   0.3555E+05   0.3555E+05
    366.8       0.3555E+05   0.3555E+05   0.3555E+05   0.3555E+05   0.3555E+05   0.3555E+05   0.3555E+05   0.3555E+05   0.3555E+05   0.3555E+05
