 TITLE = "Susceptible"
 VARIABLES = "time" 
 "  1" "  2" "  3" "  4" "  5" "  6" "  7" "  8" "  9" " 10"
 ZONE T="Average"  F=POINT, I=  200, J=1, K=1
    0.000       0.5178E+07   0.5178E+07   0.5178E+07   0.5178E+07   0.5178E+07   0.5178E+07   0.5178E+07   0.5178E+07   0.5178E+07   0.5178E+07
    1.834       0.5178E+07   0.5178E+07   0.5178E+07   0.5178E+07   0.5178E+07   0.5178E+07   0.5178E+07   0.5178E+07   0.5178E+07   0.5178E+07
    3.668       0.5177E+07   0.5177E+07   0.5177E+07   0.5177E+07   0.5177E+07   0.5177E+07   0.5177E+07   0.5177E+07   0.5177E+07   0.5177E+07
    5.503       0.5177E+07   0.5177E+07   0.5177E+07   0.5177E+07   0.5177E+07   0.5177E+07   0.5177E+07   0.5177E+07   0.5177E+07   0.5177E+07
    7.337       0.5176E+07   0.5176E+07   0.5176E+07   0.5176E+07   0.5176E+07   0.5176E+07   0.5176E+07   0.5176E+07   0.5176E+07   0.5176E+07
    9.171       0.5176E+07   0.5176E+07   0.5176E+07   0.5176E+07   0.5176E+07   0.5176E+07   0.5176E+07   0.5176E+07   0.5176E+07   0.5176E+07
    11.01       0.5175E+07   0.5175E+07   0.5175E+07   0.5175E+07   0.5175E+07   0.5175E+07   0.5175E+07   0.5175E+07   0.5175E+07   0.5175E+07
    12.84       0.5174E+07   0.5174E+07   0.5174E+07   0.5174E+07   0.5174E+07   0.5174E+07   0.5174E+07   0.5174E+07   0.5174E+07   0.5174E+07
    14.67       0.5173E+07   0.5173E+07   0.5173E+07   0.5173E+07   0.5173E+07   0.5173E+07   0.5173E+07   0.5173E+07   0.5173E+07   0.5173E+07
    16.51       0.5171E+07   0.5171E+07   0.5171E+07   0.5171E+07   0.5171E+07   0.5171E+07   0.5171E+07   0.5171E+07   0.5171E+07   0.5171E+07
    18.34       0.5170E+07   0.5170E+07   0.5170E+07   0.5170E+07   0.5170E+07   0.5170E+07   0.5170E+07   0.5170E+07   0.5170E+07   0.5170E+07
    20.18       0.5167E+07   0.5167E+07   0.5167E+07   0.5167E+07   0.5167E+07   0.5167E+07   0.5167E+07   0.5167E+07   0.5167E+07   0.5167E+07
    22.01       0.5165E+07   0.5165E+07   0.5165E+07   0.5165E+07   0.5165E+07   0.5165E+07   0.5165E+07   0.5165E+07   0.5165E+07   0.5165E+07
    23.84       0.5161E+07   0.5161E+07   0.5161E+07   0.5161E+07   0.5161E+07   0.5161E+07   0.5161E+07   0.5161E+07   0.5161E+07   0.5161E+07
    25.68       0.5157E+07   0.5157E+07   0.5157E+07   0.5157E+07   0.5157E+07   0.5157E+07   0.5157E+07   0.5157E+07   0.5157E+07   0.5157E+07
    27.51       0.5151E+07   0.5151E+07   0.5151E+07   0.5151E+07   0.5151E+07   0.5151E+07   0.5151E+07   0.5151E+07   0.5151E+07   0.5151E+07
    29.35       0.5145E+07   0.5145E+07   0.5145E+07   0.5145E+07   0.5145E+07   0.5145E+07   0.5145E+07   0.5145E+07   0.5145E+07   0.5145E+07
    31.18       0.5136E+07   0.5136E+07   0.5136E+07   0.5136E+07   0.5136E+07   0.5136E+07   0.5136E+07   0.5136E+07   0.5136E+07   0.5136E+07
    33.02       0.5126E+07   0.5126E+07   0.5126E+07   0.5126E+07   0.5126E+07   0.5126E+07   0.5126E+07   0.5126E+07   0.5126E+07   0.5126E+07
    34.85       0.5113E+07   0.5113E+07   0.5113E+07   0.5113E+07   0.5113E+07   0.5113E+07   0.5113E+07   0.5113E+07   0.5113E+07   0.5113E+07
    36.68       0.5097E+07   0.5097E+07   0.5097E+07   0.5097E+07   0.5097E+07   0.5097E+07   0.5097E+07   0.5097E+07   0.5097E+07   0.5097E+07
    38.52       0.5077E+07   0.5077E+07   0.5077E+07   0.5077E+07   0.5077E+07   0.5077E+07   0.5077E+07   0.5077E+07   0.5077E+07   0.5077E+07
    40.35       0.5053E+07   0.5053E+07   0.5053E+07   0.5053E+07   0.5053E+07   0.5053E+07   0.5053E+07   0.5053E+07   0.5053E+07   0.5053E+07
    42.19       0.5023E+07   0.5023E+07   0.5023E+07   0.5023E+07   0.5023E+07   0.5023E+07   0.5023E+07   0.5023E+07   0.5023E+07   0.5023E+07
    44.02       0.4986E+07   0.4986E+07   0.4986E+07   0.4986E+07   0.4986E+07   0.4986E+07   0.4986E+07   0.4986E+07   0.4986E+07   0.4986E+07
    45.85       0.4940E+07   0.4940E+07   0.4940E+07   0.4940E+07   0.4940E+07   0.4940E+07   0.4940E+07   0.4940E+07   0.4940E+07   0.4940E+07
    47.69       0.4885E+07   0.4885E+07   0.4885E+07   0.4885E+07   0.4885E+07   0.4885E+07   0.4885E+07   0.4885E+07   0.4885E+07   0.4885E+07
    49.52       0.4818E+07   0.4818E+07   0.4818E+07   0.4818E+07   0.4818E+07   0.4818E+07   0.4818E+07   0.4818E+07   0.4818E+07   0.4818E+07
    51.36       0.4737E+07   0.4737E+07   0.4737E+07   0.4737E+07   0.4737E+07   0.4737E+07   0.4737E+07   0.4737E+07   0.4737E+07   0.4737E+07
    53.19       0.4641E+07   0.4641E+07   0.4641E+07   0.4641E+07   0.4641E+07   0.4641E+07   0.4641E+07   0.4641E+07   0.4641E+07   0.4641E+07
    55.03       0.4528E+07   0.4528E+07   0.4528E+07   0.4528E+07   0.4528E+07   0.4528E+07   0.4528E+07   0.4528E+07   0.4528E+07   0.4528E+07
    56.86       0.4395E+07   0.4395E+07   0.4395E+07   0.4395E+07   0.4395E+07   0.4395E+07   0.4395E+07   0.4395E+07   0.4395E+07   0.4395E+07
    58.69       0.4269E+07   0.4269E+07   0.4269E+07   0.4269E+07   0.4269E+07   0.4269E+07   0.4269E+07   0.4269E+07   0.4269E+07   0.4269E+07
    60.53       0.4201E+07   0.4201E+07   0.4201E+07   0.4201E+07   0.4201E+07   0.4201E+07   0.4201E+07   0.4201E+07   0.4201E+07   0.4201E+07
    62.36       0.4133E+07   0.4133E+07   0.4133E+07   0.4133E+07   0.4133E+07   0.4133E+07   0.4133E+07   0.4133E+07   0.4133E+07   0.4133E+07
    64.20       0.4069E+07   0.4069E+07   0.4069E+07   0.4069E+07   0.4069E+07   0.4069E+07   0.4069E+07   0.4069E+07   0.4069E+07   0.4069E+07
    66.03       0.4010E+07   0.4010E+07   0.4010E+07   0.4010E+07   0.4010E+07   0.4010E+07   0.4010E+07   0.4010E+07   0.4010E+07   0.4010E+07
    67.86       0.3955E+07   0.3955E+07   0.3955E+07   0.3955E+07   0.3955E+07   0.3955E+07   0.3955E+07   0.3955E+07   0.3955E+07   0.3955E+07
    69.70       0.3904E+07   0.3904E+07   0.3904E+07   0.3904E+07   0.3904E+07   0.3904E+07   0.3904E+07   0.3904E+07   0.3904E+07   0.3904E+07
    71.53       0.3858E+07   0.3858E+07   0.3858E+07   0.3858E+07   0.3858E+07   0.3858E+07   0.3858E+07   0.3858E+07   0.3858E+07   0.3858E+07
    73.37       0.3816E+07   0.3816E+07   0.3816E+07   0.3816E+07   0.3816E+07   0.3816E+07   0.3816E+07   0.3816E+07   0.3816E+07   0.3816E+07
    75.20       0.3777E+07   0.3777E+07   0.3777E+07   0.3777E+07   0.3777E+07   0.3777E+07   0.3777E+07   0.3777E+07   0.3777E+07   0.3777E+07
    77.04       0.3742E+07   0.3742E+07   0.3742E+07   0.3742E+07   0.3742E+07   0.3742E+07   0.3742E+07   0.3742E+07   0.3742E+07   0.3742E+07
    78.87       0.3710E+07   0.3710E+07   0.3710E+07   0.3710E+07   0.3710E+07   0.3710E+07   0.3710E+07   0.3710E+07   0.3710E+07   0.3710E+07
    80.70       0.3680E+07   0.3680E+07   0.3680E+07   0.3680E+07   0.3680E+07   0.3680E+07   0.3680E+07   0.3680E+07   0.3680E+07   0.3680E+07
    82.54       0.3654E+07   0.3654E+07   0.3654E+07   0.3654E+07   0.3654E+07   0.3654E+07   0.3654E+07   0.3654E+07   0.3654E+07   0.3654E+07
    84.37       0.3630E+07   0.3630E+07   0.3630E+07   0.3630E+07   0.3630E+07   0.3630E+07   0.3630E+07   0.3630E+07   0.3630E+07   0.3630E+07
    86.21       0.3608E+07   0.3608E+07   0.3608E+07   0.3608E+07   0.3608E+07   0.3608E+07   0.3608E+07   0.3608E+07   0.3608E+07   0.3608E+07
    88.04       0.3588E+07   0.3588E+07   0.3588E+07   0.3588E+07   0.3588E+07   0.3588E+07   0.3588E+07   0.3588E+07   0.3588E+07   0.3588E+07
    89.87       0.3570E+07   0.3570E+07   0.3570E+07   0.3570E+07   0.3570E+07   0.3570E+07   0.3570E+07   0.3570E+07   0.3570E+07   0.3570E+07
    91.71       0.3554E+07   0.3554E+07   0.3554E+07   0.3554E+07   0.3554E+07   0.3554E+07   0.3554E+07   0.3554E+07   0.3554E+07   0.3554E+07
    93.54       0.3539E+07   0.3539E+07   0.3539E+07   0.3539E+07   0.3539E+07   0.3539E+07   0.3539E+07   0.3539E+07   0.3539E+07   0.3539E+07
    95.38       0.3526E+07   0.3526E+07   0.3526E+07   0.3526E+07   0.3526E+07   0.3526E+07   0.3526E+07   0.3526E+07   0.3526E+07   0.3526E+07
    97.21       0.3514E+07   0.3514E+07   0.3514E+07   0.3514E+07   0.3514E+07   0.3514E+07   0.3514E+07   0.3514E+07   0.3514E+07   0.3514E+07
    99.05       0.3503E+07   0.3503E+07   0.3503E+07   0.3503E+07   0.3503E+07   0.3503E+07   0.3503E+07   0.3503E+07   0.3503E+07   0.3503E+07
    100.9       0.3493E+07   0.3493E+07   0.3493E+07   0.3493E+07   0.3493E+07   0.3493E+07   0.3493E+07   0.3493E+07   0.3493E+07   0.3493E+07
    102.7       0.3484E+07   0.3484E+07   0.3484E+07   0.3484E+07   0.3484E+07   0.3484E+07   0.3484E+07   0.3484E+07   0.3484E+07   0.3484E+07
    104.5       0.3476E+07   0.3476E+07   0.3476E+07   0.3476E+07   0.3476E+07   0.3476E+07   0.3476E+07   0.3476E+07   0.3476E+07   0.3476E+07
    106.4       0.3469E+07   0.3469E+07   0.3469E+07   0.3469E+07   0.3469E+07   0.3469E+07   0.3469E+07   0.3469E+07   0.3469E+07   0.3469E+07
    108.2       0.3462E+07   0.3462E+07   0.3462E+07   0.3462E+07   0.3462E+07   0.3462E+07   0.3462E+07   0.3462E+07   0.3462E+07   0.3462E+07
    110.1       0.3456E+07   0.3456E+07   0.3456E+07   0.3456E+07   0.3456E+07   0.3456E+07   0.3456E+07   0.3456E+07   0.3456E+07   0.3456E+07
    111.9       0.3451E+07   0.3451E+07   0.3451E+07   0.3451E+07   0.3451E+07   0.3451E+07   0.3451E+07   0.3451E+07   0.3451E+07   0.3451E+07
    113.7       0.3446E+07   0.3446E+07   0.3446E+07   0.3446E+07   0.3446E+07   0.3446E+07   0.3446E+07   0.3446E+07   0.3446E+07   0.3446E+07
    115.6       0.3441E+07   0.3441E+07   0.3441E+07   0.3441E+07   0.3441E+07   0.3441E+07   0.3441E+07   0.3441E+07   0.3441E+07   0.3441E+07
    117.4       0.3437E+07   0.3437E+07   0.3437E+07   0.3437E+07   0.3437E+07   0.3437E+07   0.3437E+07   0.3437E+07   0.3437E+07   0.3437E+07
    119.2       0.3434E+07   0.3434E+07   0.3434E+07   0.3434E+07   0.3434E+07   0.3434E+07   0.3434E+07   0.3434E+07   0.3434E+07   0.3434E+07
    121.1       0.3431E+07   0.3431E+07   0.3431E+07   0.3431E+07   0.3431E+07   0.3431E+07   0.3431E+07   0.3431E+07   0.3431E+07   0.3431E+07
    122.9       0.3428E+07   0.3428E+07   0.3428E+07   0.3428E+07   0.3428E+07   0.3428E+07   0.3428E+07   0.3428E+07   0.3428E+07   0.3428E+07
    124.7       0.3425E+07   0.3425E+07   0.3425E+07   0.3425E+07   0.3425E+07   0.3425E+07   0.3425E+07   0.3425E+07   0.3425E+07   0.3425E+07
    126.6       0.3423E+07   0.3423E+07   0.3423E+07   0.3423E+07   0.3423E+07   0.3423E+07   0.3423E+07   0.3423E+07   0.3423E+07   0.3423E+07
    128.4       0.3421E+07   0.3421E+07   0.3421E+07   0.3421E+07   0.3421E+07   0.3421E+07   0.3421E+07   0.3421E+07   0.3421E+07   0.3421E+07
    130.2       0.3419E+07   0.3419E+07   0.3419E+07   0.3419E+07   0.3419E+07   0.3419E+07   0.3419E+07   0.3419E+07   0.3419E+07   0.3419E+07
    132.1       0.3417E+07   0.3417E+07   0.3417E+07   0.3417E+07   0.3417E+07   0.3417E+07   0.3417E+07   0.3417E+07   0.3417E+07   0.3417E+07
    133.9       0.3415E+07   0.3415E+07   0.3415E+07   0.3415E+07   0.3415E+07   0.3415E+07   0.3415E+07   0.3415E+07   0.3415E+07   0.3415E+07
    135.7       0.3414E+07   0.3414E+07   0.3414E+07   0.3414E+07   0.3414E+07   0.3414E+07   0.3414E+07   0.3414E+07   0.3414E+07   0.3414E+07
    137.6       0.3413E+07   0.3413E+07   0.3413E+07   0.3413E+07   0.3413E+07   0.3413E+07   0.3413E+07   0.3413E+07   0.3413E+07   0.3413E+07
    139.4       0.3412E+07   0.3412E+07   0.3412E+07   0.3412E+07   0.3412E+07   0.3412E+07   0.3412E+07   0.3412E+07   0.3412E+07   0.3412E+07
    141.2       0.3410E+07   0.3410E+07   0.3410E+07   0.3410E+07   0.3410E+07   0.3410E+07   0.3410E+07   0.3410E+07   0.3410E+07   0.3410E+07
    143.1       0.3410E+07   0.3410E+07   0.3410E+07   0.3410E+07   0.3410E+07   0.3410E+07   0.3410E+07   0.3410E+07   0.3410E+07   0.3410E+07
    144.9       0.3409E+07   0.3409E+07   0.3409E+07   0.3409E+07   0.3409E+07   0.3409E+07   0.3409E+07   0.3409E+07   0.3409E+07   0.3409E+07
    146.7       0.3408E+07   0.3408E+07   0.3408E+07   0.3408E+07   0.3408E+07   0.3408E+07   0.3408E+07   0.3408E+07   0.3408E+07   0.3408E+07
    148.6       0.3407E+07   0.3407E+07   0.3407E+07   0.3407E+07   0.3407E+07   0.3407E+07   0.3407E+07   0.3407E+07   0.3407E+07   0.3407E+07
    150.4       0.3407E+07   0.3407E+07   0.3407E+07   0.3407E+07   0.3407E+07   0.3407E+07   0.3407E+07   0.3407E+07   0.3407E+07   0.3407E+07
    152.2       0.3406E+07   0.3406E+07   0.3406E+07   0.3406E+07   0.3406E+07   0.3406E+07   0.3406E+07   0.3406E+07   0.3406E+07   0.3406E+07
    154.1       0.3406E+07   0.3406E+07   0.3406E+07   0.3406E+07   0.3406E+07   0.3406E+07   0.3406E+07   0.3406E+07   0.3406E+07   0.3406E+07
    155.9       0.3405E+07   0.3405E+07   0.3405E+07   0.3405E+07   0.3405E+07   0.3405E+07   0.3405E+07   0.3405E+07   0.3405E+07   0.3405E+07
    157.7       0.3405E+07   0.3405E+07   0.3405E+07   0.3405E+07   0.3405E+07   0.3405E+07   0.3405E+07   0.3405E+07   0.3405E+07   0.3405E+07
    159.6       0.3404E+07   0.3404E+07   0.3404E+07   0.3404E+07   0.3404E+07   0.3404E+07   0.3404E+07   0.3404E+07   0.3404E+07   0.3404E+07
    161.4       0.3404E+07   0.3404E+07   0.3404E+07   0.3404E+07   0.3404E+07   0.3404E+07   0.3404E+07   0.3404E+07   0.3404E+07   0.3404E+07
    163.2       0.3404E+07   0.3404E+07   0.3404E+07   0.3404E+07   0.3404E+07   0.3404E+07   0.3404E+07   0.3404E+07   0.3404E+07   0.3404E+07
    165.1       0.3403E+07   0.3403E+07   0.3403E+07   0.3403E+07   0.3403E+07   0.3403E+07   0.3403E+07   0.3403E+07   0.3403E+07   0.3403E+07
    166.9       0.3403E+07   0.3403E+07   0.3403E+07   0.3403E+07   0.3403E+07   0.3403E+07   0.3403E+07   0.3403E+07   0.3403E+07   0.3403E+07
    168.7       0.3403E+07   0.3403E+07   0.3403E+07   0.3403E+07   0.3403E+07   0.3403E+07   0.3403E+07   0.3403E+07   0.3403E+07   0.3403E+07
    170.6       0.3403E+07   0.3403E+07   0.3403E+07   0.3403E+07   0.3403E+07   0.3403E+07   0.3403E+07   0.3403E+07   0.3403E+07   0.3403E+07
    172.4       0.3403E+07   0.3403E+07   0.3403E+07   0.3403E+07   0.3403E+07   0.3403E+07   0.3403E+07   0.3403E+07   0.3403E+07   0.3403E+07
    174.2       0.3402E+07   0.3402E+07   0.3402E+07   0.3402E+07   0.3402E+07   0.3402E+07   0.3402E+07   0.3402E+07   0.3402E+07   0.3402E+07
    176.1       0.3402E+07   0.3402E+07   0.3402E+07   0.3402E+07   0.3402E+07   0.3402E+07   0.3402E+07   0.3402E+07   0.3402E+07   0.3402E+07
    177.9       0.3402E+07   0.3402E+07   0.3402E+07   0.3402E+07   0.3402E+07   0.3402E+07   0.3402E+07   0.3402E+07   0.3402E+07   0.3402E+07
    179.7       0.3402E+07   0.3402E+07   0.3402E+07   0.3402E+07   0.3402E+07   0.3402E+07   0.3402E+07   0.3402E+07   0.3402E+07   0.3402E+07
    181.6       0.3402E+07   0.3402E+07   0.3402E+07   0.3402E+07   0.3402E+07   0.3402E+07   0.3402E+07   0.3402E+07   0.3402E+07   0.3402E+07
    183.4       0.3402E+07   0.3402E+07   0.3402E+07   0.3402E+07   0.3402E+07   0.3402E+07   0.3402E+07   0.3402E+07   0.3402E+07   0.3402E+07
    185.3       0.3402E+07   0.3402E+07   0.3402E+07   0.3402E+07   0.3402E+07   0.3402E+07   0.3402E+07   0.3402E+07   0.3402E+07   0.3402E+07
    187.1       0.3402E+07   0.3402E+07   0.3402E+07   0.3402E+07   0.3402E+07   0.3402E+07   0.3402E+07   0.3402E+07   0.3402E+07   0.3402E+07
    188.9       0.3402E+07   0.3402E+07   0.3402E+07   0.3402E+07   0.3402E+07   0.3402E+07   0.3402E+07   0.3402E+07   0.3402E+07   0.3402E+07
    190.8       0.3402E+07   0.3402E+07   0.3402E+07   0.3402E+07   0.3402E+07   0.3402E+07   0.3402E+07   0.3402E+07   0.3402E+07   0.3402E+07
    192.6       0.3401E+07   0.3401E+07   0.3401E+07   0.3401E+07   0.3401E+07   0.3401E+07   0.3401E+07   0.3401E+07   0.3401E+07   0.3401E+07
    194.4       0.3401E+07   0.3401E+07   0.3401E+07   0.3401E+07   0.3401E+07   0.3401E+07   0.3401E+07   0.3401E+07   0.3401E+07   0.3401E+07
    196.3       0.3401E+07   0.3401E+07   0.3401E+07   0.3401E+07   0.3401E+07   0.3401E+07   0.3401E+07   0.3401E+07   0.3401E+07   0.3401E+07
    198.1       0.3401E+07   0.3401E+07   0.3401E+07   0.3401E+07   0.3401E+07   0.3401E+07   0.3401E+07   0.3401E+07   0.3401E+07   0.3401E+07
    199.9       0.3401E+07   0.3401E+07   0.3401E+07   0.3401E+07   0.3401E+07   0.3401E+07   0.3401E+07   0.3401E+07   0.3401E+07   0.3401E+07
    201.8       0.3401E+07   0.3401E+07   0.3401E+07   0.3401E+07   0.3401E+07   0.3401E+07   0.3401E+07   0.3401E+07   0.3401E+07   0.3401E+07
    203.6       0.3401E+07   0.3401E+07   0.3401E+07   0.3401E+07   0.3401E+07   0.3401E+07   0.3401E+07   0.3401E+07   0.3401E+07   0.3401E+07
    205.4       0.3401E+07   0.3401E+07   0.3401E+07   0.3401E+07   0.3401E+07   0.3401E+07   0.3401E+07   0.3401E+07   0.3401E+07   0.3401E+07
    207.3       0.3401E+07   0.3401E+07   0.3401E+07   0.3401E+07   0.3401E+07   0.3401E+07   0.3401E+07   0.3401E+07   0.3401E+07   0.3401E+07
    209.1       0.3401E+07   0.3401E+07   0.3401E+07   0.3401E+07   0.3401E+07   0.3401E+07   0.3401E+07   0.3401E+07   0.3401E+07   0.3401E+07
    210.9       0.3401E+07   0.3401E+07   0.3401E+07   0.3401E+07   0.3401E+07   0.3401E+07   0.3401E+07   0.3401E+07   0.3401E+07   0.3401E+07
    212.8       0.3401E+07   0.3401E+07   0.3401E+07   0.3401E+07   0.3401E+07   0.3401E+07   0.3401E+07   0.3401E+07   0.3401E+07   0.3401E+07
    214.6       0.3401E+07   0.3401E+07   0.3401E+07   0.3401E+07   0.3401E+07   0.3401E+07   0.3401E+07   0.3401E+07   0.3401E+07   0.3401E+07
    216.4       0.3401E+07   0.3401E+07   0.3401E+07   0.3401E+07   0.3401E+07   0.3401E+07   0.3401E+07   0.3401E+07   0.3401E+07   0.3401E+07
    218.3       0.3401E+07   0.3401E+07   0.3401E+07   0.3401E+07   0.3401E+07   0.3401E+07   0.3401E+07   0.3401E+07   0.3401E+07   0.3401E+07
    220.1       0.3401E+07   0.3401E+07   0.3401E+07   0.3401E+07   0.3401E+07   0.3401E+07   0.3401E+07   0.3401E+07   0.3401E+07   0.3401E+07
    221.9       0.3401E+07   0.3401E+07   0.3401E+07   0.3401E+07   0.3401E+07   0.3401E+07   0.3401E+07   0.3401E+07   0.3401E+07   0.3401E+07
    223.8       0.3401E+07   0.3401E+07   0.3401E+07   0.3401E+07   0.3401E+07   0.3401E+07   0.3401E+07   0.3401E+07   0.3401E+07   0.3401E+07
    225.6       0.3401E+07   0.3401E+07   0.3401E+07   0.3401E+07   0.3401E+07   0.3401E+07   0.3401E+07   0.3401E+07   0.3401E+07   0.3401E+07
    227.4       0.3401E+07   0.3401E+07   0.3401E+07   0.3401E+07   0.3401E+07   0.3401E+07   0.3401E+07   0.3401E+07   0.3401E+07   0.3401E+07
    229.3       0.3401E+07   0.3401E+07   0.3401E+07   0.3401E+07   0.3401E+07   0.3401E+07   0.3401E+07   0.3401E+07   0.3401E+07   0.3401E+07
    231.1       0.3401E+07   0.3401E+07   0.3401E+07   0.3401E+07   0.3401E+07   0.3401E+07   0.3401E+07   0.3401E+07   0.3401E+07   0.3401E+07
    232.9       0.3401E+07   0.3401E+07   0.3401E+07   0.3401E+07   0.3401E+07   0.3401E+07   0.3401E+07   0.3401E+07   0.3401E+07   0.3401E+07
    234.8       0.3401E+07   0.3401E+07   0.3401E+07   0.3401E+07   0.3401E+07   0.3401E+07   0.3401E+07   0.3401E+07   0.3401E+07   0.3401E+07
    236.6       0.3401E+07   0.3401E+07   0.3401E+07   0.3401E+07   0.3401E+07   0.3401E+07   0.3401E+07   0.3401E+07   0.3401E+07   0.3401E+07
    238.4       0.3401E+07   0.3401E+07   0.3401E+07   0.3401E+07   0.3401E+07   0.3401E+07   0.3401E+07   0.3401E+07   0.3401E+07   0.3401E+07
    240.3       0.3401E+07   0.3401E+07   0.3401E+07   0.3401E+07   0.3401E+07   0.3401E+07   0.3401E+07   0.3401E+07   0.3401E+07   0.3401E+07
    242.1       0.3401E+07   0.3401E+07   0.3401E+07   0.3401E+07   0.3401E+07   0.3401E+07   0.3401E+07   0.3401E+07   0.3401E+07   0.3401E+07
    243.9       0.3401E+07   0.3401E+07   0.3401E+07   0.3401E+07   0.3401E+07   0.3401E+07   0.3401E+07   0.3401E+07   0.3401E+07   0.3401E+07
    245.8       0.3401E+07   0.3401E+07   0.3401E+07   0.3401E+07   0.3401E+07   0.3401E+07   0.3401E+07   0.3401E+07   0.3401E+07   0.3401E+07
    247.6       0.3401E+07   0.3401E+07   0.3401E+07   0.3401E+07   0.3401E+07   0.3401E+07   0.3401E+07   0.3401E+07   0.3401E+07   0.3401E+07
    249.4       0.3401E+07   0.3401E+07   0.3401E+07   0.3401E+07   0.3401E+07   0.3401E+07   0.3401E+07   0.3401E+07   0.3401E+07   0.3401E+07
    251.3       0.3401E+07   0.3401E+07   0.3401E+07   0.3401E+07   0.3401E+07   0.3401E+07   0.3401E+07   0.3401E+07   0.3401E+07   0.3401E+07
    253.1       0.3401E+07   0.3401E+07   0.3401E+07   0.3401E+07   0.3401E+07   0.3401E+07   0.3401E+07   0.3401E+07   0.3401E+07   0.3401E+07
    254.9       0.3401E+07   0.3401E+07   0.3401E+07   0.3401E+07   0.3401E+07   0.3401E+07   0.3401E+07   0.3401E+07   0.3401E+07   0.3401E+07
    256.8       0.3401E+07   0.3401E+07   0.3401E+07   0.3401E+07   0.3401E+07   0.3401E+07   0.3401E+07   0.3401E+07   0.3401E+07   0.3401E+07
    258.6       0.3401E+07   0.3401E+07   0.3401E+07   0.3401E+07   0.3401E+07   0.3401E+07   0.3401E+07   0.3401E+07   0.3401E+07   0.3401E+07
    260.5       0.3401E+07   0.3401E+07   0.3401E+07   0.3401E+07   0.3401E+07   0.3401E+07   0.3401E+07   0.3401E+07   0.3401E+07   0.3401E+07
    262.3       0.3401E+07   0.3401E+07   0.3401E+07   0.3401E+07   0.3401E+07   0.3401E+07   0.3401E+07   0.3401E+07   0.3401E+07   0.3401E+07
    264.1       0.3401E+07   0.3401E+07   0.3401E+07   0.3401E+07   0.3401E+07   0.3401E+07   0.3401E+07   0.3401E+07   0.3401E+07   0.3401E+07
    266.0       0.3401E+07   0.3401E+07   0.3401E+07   0.3401E+07   0.3401E+07   0.3401E+07   0.3401E+07   0.3401E+07   0.3401E+07   0.3401E+07
    267.8       0.3401E+07   0.3401E+07   0.3401E+07   0.3401E+07   0.3401E+07   0.3401E+07   0.3401E+07   0.3401E+07   0.3401E+07   0.3401E+07
    269.6       0.3401E+07   0.3401E+07   0.3401E+07   0.3401E+07   0.3401E+07   0.3401E+07   0.3401E+07   0.3401E+07   0.3401E+07   0.3401E+07
    271.5       0.3401E+07   0.3401E+07   0.3401E+07   0.3401E+07   0.3401E+07   0.3401E+07   0.3401E+07   0.3401E+07   0.3401E+07   0.3401E+07
    273.3       0.3401E+07   0.3401E+07   0.3401E+07   0.3401E+07   0.3401E+07   0.3401E+07   0.3401E+07   0.3401E+07   0.3401E+07   0.3401E+07
    275.1       0.3401E+07   0.3401E+07   0.3401E+07   0.3401E+07   0.3401E+07   0.3401E+07   0.3401E+07   0.3401E+07   0.3401E+07   0.3401E+07
    277.0       0.3401E+07   0.3401E+07   0.3401E+07   0.3401E+07   0.3401E+07   0.3401E+07   0.3401E+07   0.3401E+07   0.3401E+07   0.3401E+07
    278.8       0.3401E+07   0.3401E+07   0.3401E+07   0.3401E+07   0.3401E+07   0.3401E+07   0.3401E+07   0.3401E+07   0.3401E+07   0.3401E+07
    280.6       0.3401E+07   0.3401E+07   0.3401E+07   0.3401E+07   0.3401E+07   0.3401E+07   0.3401E+07   0.3401E+07   0.3401E+07   0.3401E+07
    282.5       0.3401E+07   0.3401E+07   0.3401E+07   0.3401E+07   0.3401E+07   0.3401E+07   0.3401E+07   0.3401E+07   0.3401E+07   0.3401E+07
    284.3       0.3401E+07   0.3401E+07   0.3401E+07   0.3401E+07   0.3401E+07   0.3401E+07   0.3401E+07   0.3401E+07   0.3401E+07   0.3401E+07
    286.1       0.3401E+07   0.3401E+07   0.3401E+07   0.3401E+07   0.3401E+07   0.3401E+07   0.3401E+07   0.3401E+07   0.3401E+07   0.3401E+07
    288.0       0.3401E+07   0.3401E+07   0.3401E+07   0.3401E+07   0.3401E+07   0.3401E+07   0.3401E+07   0.3401E+07   0.3401E+07   0.3401E+07
    289.8       0.3401E+07   0.3401E+07   0.3401E+07   0.3401E+07   0.3401E+07   0.3401E+07   0.3401E+07   0.3401E+07   0.3401E+07   0.3401E+07
    291.6       0.3401E+07   0.3401E+07   0.3401E+07   0.3401E+07   0.3401E+07   0.3401E+07   0.3401E+07   0.3401E+07   0.3401E+07   0.3401E+07
    293.5       0.3401E+07   0.3401E+07   0.3401E+07   0.3401E+07   0.3401E+07   0.3401E+07   0.3401E+07   0.3401E+07   0.3401E+07   0.3401E+07
    295.3       0.3401E+07   0.3401E+07   0.3401E+07   0.3401E+07   0.3401E+07   0.3401E+07   0.3401E+07   0.3401E+07   0.3401E+07   0.3401E+07
    297.1       0.3401E+07   0.3401E+07   0.3401E+07   0.3401E+07   0.3401E+07   0.3401E+07   0.3401E+07   0.3401E+07   0.3401E+07   0.3401E+07
    299.0       0.3401E+07   0.3401E+07   0.3401E+07   0.3401E+07   0.3401E+07   0.3401E+07   0.3401E+07   0.3401E+07   0.3401E+07   0.3401E+07
    300.8       0.3401E+07   0.3401E+07   0.3401E+07   0.3401E+07   0.3401E+07   0.3401E+07   0.3401E+07   0.3401E+07   0.3401E+07   0.3401E+07
    302.6       0.3401E+07   0.3401E+07   0.3401E+07   0.3401E+07   0.3401E+07   0.3401E+07   0.3401E+07   0.3401E+07   0.3401E+07   0.3401E+07
    304.5       0.3401E+07   0.3401E+07   0.3401E+07   0.3401E+07   0.3401E+07   0.3401E+07   0.3401E+07   0.3401E+07   0.3401E+07   0.3401E+07
    306.3       0.3401E+07   0.3401E+07   0.3401E+07   0.3401E+07   0.3401E+07   0.3401E+07   0.3401E+07   0.3401E+07   0.3401E+07   0.3401E+07
    308.1       0.3401E+07   0.3401E+07   0.3401E+07   0.3401E+07   0.3401E+07   0.3401E+07   0.3401E+07   0.3401E+07   0.3401E+07   0.3401E+07
    310.0       0.3401E+07   0.3401E+07   0.3401E+07   0.3401E+07   0.3401E+07   0.3401E+07   0.3401E+07   0.3401E+07   0.3401E+07   0.3401E+07
    311.8       0.3401E+07   0.3401E+07   0.3401E+07   0.3401E+07   0.3401E+07   0.3401E+07   0.3401E+07   0.3401E+07   0.3401E+07   0.3401E+07
    313.6       0.3401E+07   0.3401E+07   0.3401E+07   0.3401E+07   0.3401E+07   0.3401E+07   0.3401E+07   0.3401E+07   0.3401E+07   0.3401E+07
    315.5       0.3401E+07   0.3401E+07   0.3401E+07   0.3401E+07   0.3401E+07   0.3401E+07   0.3401E+07   0.3401E+07   0.3401E+07   0.3401E+07
    317.3       0.3401E+07   0.3401E+07   0.3401E+07   0.3401E+07   0.3401E+07   0.3401E+07   0.3401E+07   0.3401E+07   0.3401E+07   0.3401E+07
    319.1       0.3401E+07   0.3401E+07   0.3401E+07   0.3401E+07   0.3401E+07   0.3401E+07   0.3401E+07   0.3401E+07   0.3401E+07   0.3401E+07
    321.0       0.3401E+07   0.3401E+07   0.3401E+07   0.3401E+07   0.3401E+07   0.3401E+07   0.3401E+07   0.3401E+07   0.3401E+07   0.3401E+07
    322.8       0.3401E+07   0.3401E+07   0.3401E+07   0.3401E+07   0.3401E+07   0.3401E+07   0.3401E+07   0.3401E+07   0.3401E+07   0.3401E+07
    324.6       0.3401E+07   0.3401E+07   0.3401E+07   0.3401E+07   0.3401E+07   0.3401E+07   0.3401E+07   0.3401E+07   0.3401E+07   0.3401E+07
    326.5       0.3401E+07   0.3401E+07   0.3401E+07   0.3401E+07   0.3401E+07   0.3401E+07   0.3401E+07   0.3401E+07   0.3401E+07   0.3401E+07
    328.3       0.3401E+07   0.3401E+07   0.3401E+07   0.3401E+07   0.3401E+07   0.3401E+07   0.3401E+07   0.3401E+07   0.3401E+07   0.3401E+07
    330.2       0.3401E+07   0.3401E+07   0.3401E+07   0.3401E+07   0.3401E+07   0.3401E+07   0.3401E+07   0.3401E+07   0.3401E+07   0.3401E+07
    332.0       0.3401E+07   0.3401E+07   0.3401E+07   0.3401E+07   0.3401E+07   0.3401E+07   0.3401E+07   0.3401E+07   0.3401E+07   0.3401E+07
    333.8       0.3401E+07   0.3401E+07   0.3401E+07   0.3401E+07   0.3401E+07   0.3401E+07   0.3401E+07   0.3401E+07   0.3401E+07   0.3401E+07
    335.7       0.3401E+07   0.3401E+07   0.3401E+07   0.3401E+07   0.3401E+07   0.3401E+07   0.3401E+07   0.3401E+07   0.3401E+07   0.3401E+07
    337.5       0.3401E+07   0.3401E+07   0.3401E+07   0.3401E+07   0.3401E+07   0.3401E+07   0.3401E+07   0.3401E+07   0.3401E+07   0.3401E+07
    339.3       0.3401E+07   0.3401E+07   0.3401E+07   0.3401E+07   0.3401E+07   0.3401E+07   0.3401E+07   0.3401E+07   0.3401E+07   0.3401E+07
    341.2       0.3401E+07   0.3401E+07   0.3401E+07   0.3401E+07   0.3401E+07   0.3401E+07   0.3401E+07   0.3401E+07   0.3401E+07   0.3401E+07
    343.0       0.3401E+07   0.3401E+07   0.3401E+07   0.3401E+07   0.3401E+07   0.3401E+07   0.3401E+07   0.3401E+07   0.3401E+07   0.3401E+07
    344.8       0.3401E+07   0.3401E+07   0.3401E+07   0.3401E+07   0.3401E+07   0.3401E+07   0.3401E+07   0.3401E+07   0.3401E+07   0.3401E+07
    346.7       0.3401E+07   0.3401E+07   0.3401E+07   0.3401E+07   0.3401E+07   0.3401E+07   0.3401E+07   0.3401E+07   0.3401E+07   0.3401E+07
    348.5       0.3401E+07   0.3401E+07   0.3401E+07   0.3401E+07   0.3401E+07   0.3401E+07   0.3401E+07   0.3401E+07   0.3401E+07   0.3401E+07
    350.3       0.3401E+07   0.3401E+07   0.3401E+07   0.3401E+07   0.3401E+07   0.3401E+07   0.3401E+07   0.3401E+07   0.3401E+07   0.3401E+07
    352.2       0.3401E+07   0.3401E+07   0.3401E+07   0.3401E+07   0.3401E+07   0.3401E+07   0.3401E+07   0.3401E+07   0.3401E+07   0.3401E+07
    354.0       0.3401E+07   0.3401E+07   0.3401E+07   0.3401E+07   0.3401E+07   0.3401E+07   0.3401E+07   0.3401E+07   0.3401E+07   0.3401E+07
    355.8       0.3401E+07   0.3401E+07   0.3401E+07   0.3401E+07   0.3401E+07   0.3401E+07   0.3401E+07   0.3401E+07   0.3401E+07   0.3401E+07
    357.7       0.3401E+07   0.3401E+07   0.3401E+07   0.3401E+07   0.3401E+07   0.3401E+07   0.3401E+07   0.3401E+07   0.3401E+07   0.3401E+07
    359.5       0.3401E+07   0.3401E+07   0.3401E+07   0.3401E+07   0.3401E+07   0.3401E+07   0.3401E+07   0.3401E+07   0.3401E+07   0.3401E+07
    361.3       0.3401E+07   0.3401E+07   0.3401E+07   0.3401E+07   0.3401E+07   0.3401E+07   0.3401E+07   0.3401E+07   0.3401E+07   0.3401E+07
    363.2       0.3401E+07   0.3401E+07   0.3401E+07   0.3401E+07   0.3401E+07   0.3401E+07   0.3401E+07   0.3401E+07   0.3401E+07   0.3401E+07
    365.0       0.3401E+07   0.3401E+07   0.3401E+07   0.3401E+07   0.3401E+07   0.3401E+07   0.3401E+07   0.3401E+07   0.3401E+07   0.3401E+07
    366.8       0.3401E+07   0.3401E+07   0.3401E+07   0.3401E+07   0.3401E+07   0.3401E+07   0.3401E+07   0.3401E+07   0.3401E+07   0.3401E+07
